LAMMPS (30 Mar 2026 - Development - 91d4111-modified)
OMP_NUM_THREADS environment is not set. Defaulting to 1 thread.
  using 1 OpenMP thread(s) per MPI task
package omp 4
set 4 OpenMP thread(s) per MPI task
using multi-threaded neighbor list subroutines
# born/coul/wolf/cs correctness test (Step 4: pair_born_coul_wolf_cs_omp verification)
# Same setup as in.born_coul_dsf_cs_test (binary +1/-1 charge mixture, cut_lj ==
# cut_coul == 2.5 so both branches + the self-energy term are exercised);
# /cs only differs by "rsq += EPSILON" (1e-20), negligible at these distances,
# so this mainly checks the CORESHELL subclass + OMP dispatch/threading.

units           lj
atom_style      charge

lattice         fcc 0.8442
Lattice spacing in x,y,z = 1.6795962 1.6795962 1.6795962
region          box block 0 6 0 6 0 6
create_box      2 box
Created orthogonal box = (0 0 0) to (10.077577 10.077577 10.077577)
  1 by 1 by 1 MPI processor grid
create_atoms    1 box basis 1 1 basis 2 2 basis 3 1 basis 4 2
Created 864 atoms
  using lattice units in orthogonal box = (0 0 0) to (10.077577 10.077577 10.077577)
  create_atoms CPU = 0.000 seconds
mass            1 1.0
mass            2 1.0
set             type 1 charge 1.0
Setting atom values ...
  432 settings made for charge
set             type 2 charge -1.0
Setting atom values ...
  432 settings made for charge

velocity        all create 3.0 87287 loop geom

pair_style      born/coul/wolf/cs 0.2 2.5
pair_coeff      * * 1.0 0.3 1.0 0.0 0.0

neighbor        0.3 bin
neigh_modify    every 20 delay 0 check no

fix             1 all nve

thermo          10
run             50
Generated 0 of 1 mixed pair_coeff terms from geometric mixing rule
Last active /omp style is pair_style born/coul/wolf/cs/omp
Neighbor list info ...
  update: every = 20 steps, delay = 0 steps, check = no
  max neighbors/atom: 2000, page size: 100000
  master list distance cutoff = 2.8
  ghost atom cutoff = 2.8
  binsize = 1.4, bins = 8 8 8
  1 neighbor lists, perpetual/occasional/extra = 1 0 0
  (1) pair born/coul/wolf/cs/omp, perpetual
      attributes: half, newton on, omp
      pair build: half/bin/atomonly/newton/omp
      stencil: half/bin/3d
      bin: standard
Per MPI rank memory allocation (min/avg/max) = 5.464 | 5.464 | 5.464 Mbytes
   Step          Temp          E_pair         E_mol          TotEng         Press     
         0   3              3.2221162      0              7.7169079      7.2155218    
        10   2.8828454      3.4036823      0              7.7229455      7.2055558    
        20   2.5636938      3.9043048      0              7.7453946      7.1671736    
        30   2.1776003      4.497767       0              7.7603869      7.0630836    
        40   1.935353       4.8695794      0              7.769249       6.9955854    
        50   1.9049243      4.9246032      0              7.7786825      7.0245207    
Loop time of 0.0150221 on 4 procs for 50 steps with 864 atoms

Performance: 1437881.521 tau/day, 3328.429 timesteps/s, 2.876 Matom-step/s
0.0% CPU use with 1 MPI tasks x 4 OpenMP threads

MPI task timing breakdown:
Section |  min time  |  avg time  |  max time  |%varavg| %total
---------------------------------------------------------------
Pair    | 0.012789   | 0.012789   | 0.012789   |   0.0 | 85.13
Neigh   | 0.0006831  | 0.0006831  | 0.0006831  |   0.0 |  4.55
Comm    | 0.0006551  | 0.0006551  | 0.0006551  |   0.0 |  4.36
Output  | 4.88e-05   | 4.88e-05   | 4.88e-05   |   0.0 |  0.32
Modify  | 0.0008126  | 0.0008126  | 0.0008126  |   0.0 |  5.41
Other   |            | 3.38e-05   |            |       |  0.23

Nlocal:            864 ave         864 max         864 min
Histogram: 1 0 0 0 0 0 0 0 0 0
Nghost:           2334 ave        2334 max        2334 min
Histogram: 1 0 0 0 0 0 0 0 0 0
Neighs:          33147 ave       33147 max       33147 min
Histogram: 1 0 0 0 0 0 0 0 0 0

Total # of neighbors = 33147
Ave neighs/atom = 38.364583
Neighbor list builds = 2
Dangerous builds not checked
Total wall time: 0:00:00
