LAMMPS (30 Mar 2026 - Development - 91d4111-modified)
OMP_NUM_THREADS environment is not set. Defaulting to 1 thread.
  using 1 OpenMP thread(s) per MPI task
package omp 4
set 4 OpenMP thread(s) per MPI task
using multi-threaded neighbor list subroutines
# bpm/spring correctness test (Step 4: pair_bpm_spring_omp verification)
# anharmonic=yes + a rest-length (cut) larger than the nearest-neighbor
# distance (~1.19 for fcc 0.8442) so atoms sit on both sides of r_c,
# exercising both the harmonic and anharmonic force/energy branches plus
# the velocity-dependent dissipative term (needs comm_modify vel yes).

units           lj
atom_style      atomic
comm_modify     vel yes

lattice         fcc 0.8442
Lattice spacing in x,y,z = 1.6795962 1.6795962 1.6795962
region          box block 0 6 0 6 0 6
create_box      1 box
Created orthogonal box = (0 0 0) to (10.077577 10.077577 10.077577)
  1 by 1 by 1 MPI processor grid
create_atoms    1 box
Created 864 atoms
  using lattice units in orthogonal box = (0 0 0) to (10.077577 10.077577 10.077577)
  create_atoms CPU = 0.000 seconds
mass            1 1.0

velocity        all create 3.0 87287 loop geom

pair_style      bpm/spring anharmonic yes
pair_coeff      * * 50.0 1.5 1.0 500.0

neighbor        0.3 bin
neigh_modify    every 20 delay 0 check no

fix             1 all nve

thermo          10
run             50
Generated 0 of 0 mixed pair_coeff terms from geometric mixing rule
Last active /omp style is pair_style bpm/spring/omp
Neighbor list info ...
  update: every = 20 steps, delay = 0 steps, check = no
  max neighbors/atom: 2000, page size: 100000
  master list distance cutoff = 1.8
  ghost atom cutoff = 1.8
  binsize = 0.9, bins = 12 12 12
  1 neighbor lists, perpetual/occasional/extra = 1 0 0
  (1) pair bpm/spring/omp, perpetual
      attributes: half, newton on, omp
      pair build: half/bin/atomonly/newton/omp
      stencil: half/bin/3d
      bin: standard
Per MPI rank memory allocation (min/avg/max) = 5.316 | 5.316 | 5.316 Mbytes
   Step          Temp          E_pair         E_mol          TotEng         Press     
         0   3              21.772499      0              26.26729       64.39832     
        10   0.77436955     24.31188       0              25.47209       63.847843    
        20   0.90762248     23.699537      0              25.059395      63.286713    
        30   0.8205751      23.442717      0              24.672155      63.213857    
        40   0.84871493     22.992529      0              24.264128      62.913208    
        50   0.71222539     22.897044      0              23.964146      62.800789    
Loop time of 0.0025381 on 4 procs for 50 steps with 864 atoms

Performance: 8510302.983 tau/day, 19699.775 timesteps/s, 17.021 Matom-step/s
0.0% CPU use with 1 MPI tasks x 4 OpenMP threads

MPI task timing breakdown:
Section |  min time  |  avg time  |  max time  |%varavg| %total
---------------------------------------------------------------
Pair    | 0.0011903  | 0.0011903  | 0.0011903  |   0.0 | 46.90
Neigh   | 0.0001769  | 0.0001769  | 0.0001769  |   0.0 |  6.97
Comm    | 0.000655   | 0.000655   | 0.000655   |   0.0 | 25.81
Output  | 2.72e-05   | 2.72e-05   | 2.72e-05   |   0.0 |  1.07
Modify  | 0.0004742  | 0.0004742  | 0.0004742  |   0.0 | 18.68
Other   |            | 1.45e-05   |            |       |  0.57

Nlocal:            864 ave         864 max         864 min
Histogram: 1 0 0 0 0 0 0 0 0 0
Nghost:           1527 ave        1527 max        1527 min
Histogram: 1 0 0 0 0 0 0 0 0 0
Neighs:           7393 ave        7393 max        7393 min
Histogram: 1 0 0 0 0 0 0 0 0 0

Total # of neighbors = 7393
Ave neighs/atom = 8.556713
Neighbor list builds = 2
Dangerous builds not checked
Total wall time: 0:00:00
