LAMMPS (30 Mar 2026 - Development - 91d4111-modified)
  using 4 OpenMP thread(s) per MPI task
package omp 4
using multi-threaded neighbor list subroutines
# buck/coul/long/cs correctness test (Step 4: pair_buck_coul_long_cs_omp verification)
# PairBuckCoulLongCS : public PairBuckCoulLong (CORESHELL package, requires KSPACE).
# Buckingham A*exp(-r/rho) - C/r^6 (here C=0 to avoid the Buckingham
# "catastrophe" at short r while still exercising rexp/r6inv/buck1/buck2
# code paths) + same core/shell-regularized Coulomb formula as coul/long/cs
# (rsq += EPSILON; modified Ewald-correction polynomial B0-B5 +
# EPS_EWALD/EPS_EWALD_SQR for the factor_coul<1.0 branch).
# init_style()/init_one() inherited unchanged from PairBuckCoulLong, so the
# standard ncoultablebits table-lookup branch is active (tabinnersq~2.0).
# cut_buck = cut_coul = 4.0 (+0.3 skin = 4.3 < L/2 = 5.04 with this box).

units           lj
atom_style      charge

lattice         fcc 0.8442
Lattice spacing in x,y,z = 1.6795962 1.6795962 1.6795962
region          box block 0 6 0 6 0 6
create_box      2 box
Created orthogonal box = (0 0 0) to (10.077577 10.077577 10.077577)
  1 by 1 by 1 MPI processor grid
create_atoms    1 box basis 1 1 basis 2 2 basis 3 1 basis 4 2
Created 864 atoms
  using lattice units in orthogonal box = (0 0 0) to (10.077577 10.077577 10.077577)
  create_atoms CPU = 0.000 seconds
mass            1 1.0
mass            2 1.0
set             type 1 charge 1.0
Setting atom values ...
  432 settings made for charge
set             type 2 charge -1.0
Setting atom values ...
  432 settings made for charge

velocity        all create 3.0 87287 loop geom

kspace_style    ewald 1.0e-4

pair_style      buck/coul/long/cs 4.0
pair_coeff      * * 100.0 0.5 0.0

neighbor        0.3 bin
neigh_modify    every 20 delay 0 check no

fix             1 all nve

thermo          10
run             50
Ewald initialization ...
  using 12-bit tables for long-range coulomb
  G vector (1/distance) = 0.75521758
  estimated absolute RMS force accuracy = 0.00010129749
  estimated relative force accuracy = 0.00010129749
  KSpace vectors: actual max1d max3d = 1054 8 2456
                  kxmax kymax kzmax  = 8 8 8
Generated 0 of 1 mixed pair_coeff terms from geometric mixing rule
Last active /omp style is kspace_style ewald/omp
Neighbor list info ...
  update: every = 20 steps, delay = 0 steps, check = no
  max neighbors/atom: 2000, page size: 100000
  master list distance cutoff = 4.3
  ghost atom cutoff = 4.3
  binsize = 2.15, bins = 5 5 5
  1 neighbor lists, perpetual/occasional/extra = 1 0 0
  (1) pair buck/coul/long/cs/omp, perpetual
      attributes: half, newton on, omp
      pair build: half/bin/atomonly/newton/omp
      stencil: half/bin/3d
      bin: standard
Per MPI rank memory allocation (min/avg/max) = 19.04 | 19.04 | 19.04 Mbytes
   Step          Temp          E_pair         E_mol          TotEng         Press     
         0   3              104.853        0              109.34779      103.8229     
        10   2.3708185      105.73247      0              109.28458      103.24847    
        20   1.4885961      107.10289      0              109.3332       102.71417    
        30   1.5204414      107.07746      0              109.35548      102.69663    
        40   1.8185168      106.63565      0              109.36027      102.86623    
        50   1.5862494      106.98872      0              109.36534      102.76252    
Loop time of 0.0848401 on 4 procs for 50 steps with 864 atoms

Performance: 254596.588 tau/day, 589.344 timesteps/s, 509.193 katom-step/s
331.5% CPU use with 1 MPI tasks x 4 OpenMP threads

MPI task timing breakdown:
Section |  min time  |  avg time  |  max time  |%varavg| %total
---------------------------------------------------------------
Pair    | 0.019383   | 0.019383   | 0.019383   |   0.0 | 22.85
Kspace  | 0.062725   | 0.062725   | 0.062725   |   0.0 | 73.93
Neigh   | 0.0011918  | 0.0011918  | 0.0011918  |   0.0 |  1.40
Comm    | 0.0008139  | 0.0008139  | 0.0008139  |   0.0 |  0.96
Output  | 4.38e-05   | 4.38e-05   | 4.38e-05   |   0.0 |  0.05
Modify  | 0.000665   | 0.000665   | 0.000665   |   0.0 |  0.78
Other   |            | 1.76e-05   |            |       |  0.02

Nlocal:            864 ave         864 max         864 min
Histogram: 1 0 0 0 0 0 0 0 0 0
Nghost:           4673 ave        4673 max        4673 min
Histogram: 1 0 0 0 0 0 0 0 0 0
Neighs:         121324 ave      121324 max      121324 min
Histogram: 1 0 0 0 0 0 0 0 0 0

Total # of neighbors = 121324
Ave neighs/atom = 140.4213
Neighbor list builds = 2
Dangerous builds not checked
Total wall time: 0:00:00
