LAMMPS (30 Mar 2026 - Development - 91d4111-modified)
OMP_NUM_THREADS environment is not set. Defaulting to 1 thread.
  using 1 OpenMP thread(s) per MPI task
# lj/charmmfsw/coul/charmmfsh correctness test (Step 4: pair_lj_charmmfsw_coul_charmmfsh_omp verification)
# PairLJCharmmfswCoulCharmmfsh : public Pair (MOLECULE package, no kspace).
# CHARMM force-switched LJ (cut_lj_inner..cut_lj) + force-shifted Coulomb (cut_coul).
# Self-contained: no g_ewald/Ewald table dependency, no compute_inner/middle/outer.
# cut_lj_inner=3.0, cut_lj=cut_coul=4.0 (+0.3 skin = 4.3 < L/2 = 5.04 with this box).

units           lj
atom_style      charge

lattice         fcc 0.8442
Lattice spacing in x,y,z = 1.6795962 1.6795962 1.6795962
region          box block 0 6 0 6 0 6
create_box      2 box
Created orthogonal box = (0 0 0) to (10.077577 10.077577 10.077577)
  1 by 1 by 1 MPI processor grid
create_atoms    1 box basis 1 1 basis 2 2 basis 3 1 basis 4 2
Created 864 atoms
  using lattice units in orthogonal box = (0 0 0) to (10.077577 10.077577 10.077577)
  create_atoms CPU = 0.000 seconds
mass            1 1.0
mass            2 1.0
set             type 1 charge 1.0
Setting atom values ...
  432 settings made for charge
set             type 2 charge -1.0
Setting atom values ...
  432 settings made for charge

velocity        all create 3.0 87287 loop geom

pair_style      lj/charmmfsw/coul/charmmfsh 3.0 4.0
pair_coeff      * * 1.0 1.0

neighbor        0.3 bin
neigh_modify    every 20 delay 0 check no

fix             1 all nve

thermo          10
run             50
Generated 0 of 1 mixed pair_coeff terms from arithmetic mixing rule
Neighbor list info ...
  update: every = 20 steps, delay = 0 steps, check = no
  max neighbors/atom: 2000, page size: 100000
  master list distance cutoff = 4.3
  ghost atom cutoff = 4.3
  binsize = 2.15, bins = 5 5 5
  1 neighbor lists, perpetual/occasional/extra = 1 0 0
  (1) pair lj/charmmfsw/coul/charmmfsh, perpetual
      attributes: half, newton on
      pair build: half/bin/atomonly/newton
      stencil: half/bin/3d
      bin: standard
Per MPI rank memory allocation (min/avg/max) = 3.358 | 3.358 | 3.358 Mbytes
   Step          Temp          E_pair         E_mol          TotEng         Press     
         0   3             -7.3348261      0             -2.8400345     -4.3993683    
        10   2.1280509     -6.0300009      0             -2.8416191      1.6472745    
        20   1.6547632     -5.3211301      0             -2.8418582      5.1422257    
        30   1.6260817     -5.2776031      0             -2.8413036      5.2552563    
        40   1.5894103     -5.2224138      0             -2.8410577      5.3641116    
        50   1.7352986     -5.4415007      0             -2.8415655      4.4366225    
Loop time of 0.0593166 on 1 procs for 50 steps with 864 atoms

Performance: 364147.642 tau/day, 842.934 timesteps/s, 728.295 katom-step/s
105.4% CPU use with 1 MPI tasks x 1 OpenMP threads

MPI task timing breakdown:
Section |  min time  |  avg time  |  max time  |%varavg| %total
---------------------------------------------------------------
Pair    | 0.054414   | 0.054414   | 0.054414   |   0.0 | 91.74
Neigh   | 0.0038151  | 0.0038151  | 0.0038151  |   0.0 |  6.43
Comm    | 0.0007519  | 0.0007519  | 0.0007519  |   0.0 |  1.27
Output  | 5.5e-05    | 5.5e-05    | 5.5e-05    |   0.0 |  0.09
Modify  | 0.0001748  | 0.0001748  | 0.0001748  |   0.0 |  0.29
Other   |            | 0.0001057  |            |       |  0.18

Nlocal:            864 ave         864 max         864 min
Histogram: 1 0 0 0 0 0 0 0 0 0
Nghost:           4802 ave        4802 max        4802 min
Histogram: 1 0 0 0 0 0 0 0 0 0
Neighs:         121637 ave      121637 max      121637 min
Histogram: 1 0 0 0 0 0 0 0 0 0

Total # of neighbors = 121637
Ave neighs/atom = 140.78356
Neighbor list builds = 2
Dangerous builds not checked
Total wall time: 0:00:00
