LAMMPS (30 Mar 2026 - Development - 91d4111-modified)
OMP_NUM_THREADS environment is not set. Defaulting to 1 thread.
  using 1 OpenMP thread(s) per MPI task
# coul/wolf/cs correctness test (Step 4: pair_coul_wolf_cs_omp verification)
# Pure-Coulomb (Wolf summation) CORESHELL "_cs" thin-subclass variant of
# coul/wolf, which already has an OMP variant (pair_coul_wolf_omp.cpp).
# Binary +1/-1 charge mixture so every in-range pair exercises the Coulomb
# force/energy branch as well as the per-atom self-energy term.

units           lj
atom_style      charge

lattice         fcc 0.8442
Lattice spacing in x,y,z = 1.6795962 1.6795962 1.6795962
region          box block 0 6 0 6 0 6
create_box      2 box
Created orthogonal box = (0 0 0) to (10.077577 10.077577 10.077577)
  1 by 1 by 1 MPI processor grid
create_atoms    1 box basis 1 1 basis 2 2 basis 3 1 basis 4 2
Created 864 atoms
  using lattice units in orthogonal box = (0 0 0) to (10.077577 10.077577 10.077577)
  create_atoms CPU = 0.000 seconds
mass            1 1.0
mass            2 1.0
set             type 1 charge 1.0
Setting atom values ...
  432 settings made for charge
set             type 2 charge -1.0
Setting atom values ...
  432 settings made for charge

velocity        all create 3.0 87287 loop geom

pair_style      coul/wolf/cs 0.2 2.5
pair_coeff      * *

neighbor        0.3 bin
neigh_modify    every 20 delay 0 check no

fix             1 all nve

thermo          10
run             50
Generated 0 of 1 mixed pair_coeff terms from geometric mixing rule
Neighbor list info ...
  update: every = 20 steps, delay = 0 steps, check = no
  max neighbors/atom: 2000, page size: 100000
  master list distance cutoff = 2.8
  ghost atom cutoff = 2.8
  binsize = 1.4, bins = 8 8 8
  1 neighbor lists, perpetual/occasional/extra = 1 0 0
  (1) pair coul/wolf/cs, perpetual
      attributes: half, newton on
      pair build: half/bin/atomonly/newton
      stencil: half/bin/3d
      bin: standard
Per MPI rank memory allocation (min/avg/max) = 2.816 | 2.816 | 2.816 Mbytes
   Step          Temp          E_pair         E_mol          TotEng         Press     
         0   3             -0.71437828     0              3.7804134      2.3296268    
        10   2.9990463     -0.70746377     0              3.785899       2.3325897    
        20   3.0022877     -0.69157714     0              3.8066421      2.3467932    
        30   3.0259454     -0.70966041     0              3.8240043      2.3674567    
        40   3.0712304     -0.76658985     0              3.8349238      2.3928252    
        50   5.0951542     -0.67500973     0              6.9588758      4.1287487    
Loop time of 0.0312933 on 1 procs for 50 steps with 864 atoms

Performance: 690243.598 tau/day, 1597.786 timesteps/s, 1.380 Matom-step/s
49.9% CPU use with 1 MPI tasks x 1 OpenMP threads

MPI task timing breakdown:
Section |  min time  |  avg time  |  max time  |%varavg| %total
---------------------------------------------------------------
Pair    | 0.028539   | 0.028539   | 0.028539   |   0.0 | 91.20
Neigh   | 0.0018135  | 0.0018135  | 0.0018135  |   0.0 |  5.80
Comm    | 0.0005487  | 0.0005487  | 0.0005487  |   0.0 |  1.75
Output  | 5.53e-05   | 5.53e-05   | 5.53e-05   |   0.0 |  0.18
Modify  | 0.0002531  | 0.0002531  | 0.0002531  |   0.0 |  0.81
Other   |            | 8.42e-05   |            |       |  0.27

Nlocal:            864 ave         864 max         864 min
Histogram: 1 0 0 0 0 0 0 0 0 0
Nghost:           2335 ave        2335 max        2335 min
Histogram: 1 0 0 0 0 0 0 0 0 0
Neighs:          33117 ave       33117 max       33117 min
Histogram: 1 0 0 0 0 0 0 0 0 0

Total # of neighbors = 33117
Ave neighs/atom = 38.329861
Neighbor list builds = 2
Dangerous builds not checked
Total wall time: 0:00:00
