LAMMPS (30 Mar 2026 - Development - 91d4111-modified)
OMP_NUM_THREADS environment is not set. Defaulting to 1 thread.
  using 1 OpenMP thread(s) per MPI task
# coul/wolf speed test (Step 5: restrict/caching backport timing)
# Larger system + longer run than in.coul_wolf_test to make Pair time
# dominate over OS/timer noise for a reliable speedup measurement.

units           lj
atom_style      charge

lattice         fcc 0.8442
Lattice spacing in x,y,z = 1.6795962 1.6795962 1.6795962
region          box block 0 12 0 12 0 12
create_box      2 box
Created orthogonal box = (0 0 0) to (20.155154 20.155154 20.155154)
  1 by 1 by 1 MPI processor grid
create_atoms    1 box basis 1 1 basis 2 2 basis 3 1 basis 4 2
Created 6912 atoms
  using lattice units in orthogonal box = (0 0 0) to (20.155154 20.155154 20.155154)
  create_atoms CPU = 0.001 seconds
mass            1 1.0
mass            2 1.0
set             type 1 charge 1.0
Setting atom values ...
  3456 settings made for charge
set             type 2 charge -1.0
Setting atom values ...
  3456 settings made for charge

velocity        all create 3.0 87287 loop geom

pair_style      coul/wolf 0.2 2.5
pair_coeff      * *

neighbor        0.3 bin
neigh_modify    every 20 delay 0 check no

fix             1 all nve

thermo          50
run             300
Generated 0 of 1 mixed pair_coeff terms from geometric mixing rule
Neighbor list info ...
  update: every = 20 steps, delay = 0 steps, check = no
  max neighbors/atom: 2000, page size: 100000
  master list distance cutoff = 2.8
  ghost atom cutoff = 2.8
  binsize = 1.4, bins = 15 15 15
  1 neighbor lists, perpetual/occasional/extra = 1 0 0
  (1) pair coul/wolf, perpetual
      attributes: half, newton on
      pair build: half/bin/atomonly/newton
      stencil: half/bin/3d
      bin: standard
Per MPI rank memory allocation (min/avg/max) = 3.893 | 3.893 | 3.893 Mbytes
   Step          Temp          E_pair         E_mol          TotEng         Press     
         0   3             -0.71437828     0              3.7849707      2.3321916    
        50   3.1854788     -0.74088501     0              4.0366418      2.5010346    
       100   3.9329005     -0.67101875     0              5.2274785      3.1618822    
       150   8.5958331     -0.69636308     0              12.195521      7.0908496    
       200   10.503651     -0.70276488     0              15.050433      8.7003273    
       250   10.98322      -0.67108637     0              15.801361      9.1141326    
       300   13.449434     -0.70812975     0              19.463102      11.184733    
Loop time of 1.15219 on 1 procs for 300 steps with 6912 atoms

Performance: 112481.400 tau/day, 260.374 timesteps/s, 1.800 Matom-step/s
99.0% CPU use with 1 MPI tasks x 1 OpenMP threads

MPI task timing breakdown:
Section |  min time  |  avg time  |  max time  |%varavg| %total
---------------------------------------------------------------
Pair    | 1.0331     | 1.0331     | 1.0331     |   0.0 | 89.66
Neigh   | 0.095581   | 0.095581   | 0.095581   |   0.0 |  8.30
Comm    | 0.010722   | 0.010722   | 0.010722   |   0.0 |  0.93
Output  | 0.0001312  | 0.0001312  | 0.0001312  |   0.0 |  0.01
Modify  | 0.010495   | 0.010495   | 0.010495   |   0.0 |  0.91
Other   |            | 0.002203   |            |       |  0.19

Nlocal:           6912 ave        6912 max        6912 min
Histogram: 1 0 0 0 0 0 0 0 0 0
Nghost:           7522 ave        7522 max        7522 min
Histogram: 1 0 0 0 0 0 0 0 0 0
Neighs:         267820 ave      267820 max      267820 min
Histogram: 1 0 0 0 0 0 0 0 0 0

Total # of neighbors = 267820
Ave neighs/atom = 38.747106
Neighbor list builds = 15
Dangerous builds not checked
Total wall time: 0:00:01
