LAMMPS (30 Mar 2026 - Development - 91d4111-modified)
OMP_NUM_THREADS environment is not set. Defaulting to 1 thread.
  using 1 OpenMP thread(s) per MPI task
# coul/slater/cut correctness test (Step 4: pair_coul_slater_cut_omp verification)
# PairCoulSlaterCut : public PairCoulCut, whose base coul/cut already has an
# OMP variant (pair_coul_cut_omp.cpp). Binary +1/-1 charge mixture so every
# in-range pair exercises the Slater-screened Coulomb force/energy formula.

units           lj
atom_style      charge

lattice         fcc 0.8442
Lattice spacing in x,y,z = 1.6795962 1.6795962 1.6795962
region          box block 0 6 0 6 0 6
create_box      2 box
Created orthogonal box = (0 0 0) to (10.077577 10.077577 10.077577)
  1 by 1 by 1 MPI processor grid
create_atoms    1 box basis 1 1 basis 2 2 basis 3 1 basis 4 2
Created 864 atoms
  using lattice units in orthogonal box = (0 0 0) to (10.077577 10.077577 10.077577)
  create_atoms CPU = 0.000 seconds
mass            1 1.0
mass            2 1.0
set             type 1 charge 1.0
Setting atom values ...
  432 settings made for charge
set             type 2 charge -1.0
Setting atom values ...
  432 settings made for charge

velocity        all create 3.0 87287 loop geom

pair_style      coul/slater/cut 1.0 2.5
pair_coeff      * *

neighbor        0.3 bin
neigh_modify    every 20 delay 0 check no

fix             1 all nve

thermo          10
run             50
Generated 0 of 1 mixed pair_coeff terms from geometric mixing rule
Neighbor list info ...
  update: every = 20 steps, delay = 0 steps, check = no
  max neighbors/atom: 2000, page size: 100000
  master list distance cutoff = 2.8
  ghost atom cutoff = 2.8
  binsize = 1.4, bins = 8 8 8
  1 neighbor lists, perpetual/occasional/extra = 1 0 0
  (1) pair coul/slater/cut, perpetual
      attributes: half, newton on
      pair build: half/bin/atomonly/newton
      stencil: half/bin/3d
      bin: standard
Per MPI rank memory allocation (min/avg/max) = 2.816 | 2.816 | 2.816 Mbytes
   Step          Temp          E_pair         E_mol          TotEng         Press     
         0   3              0.88322286     0              5.3780145      2.8370249    
        10   2.9938352      0.33909658     0              4.8246517      2.6925541    
        20   2.976273      -0.12778254     0              4.3314598      2.5545397    
        30   2.957658      -0.20649907     0              4.2248532      2.5122278    
        40   2.9424296     -0.26494058     0              4.1435954      2.4767232    
        50   2.9276507     -0.33455728     0              4.051836       2.4377282    
Loop time of 0.0214926 on 1 procs for 50 steps with 864 atoms

Performance: 1004997.069 tau/day, 2326.382 timesteps/s, 2.010 Matom-step/s
0.0% CPU use with 1 MPI tasks x 1 OpenMP threads

MPI task timing breakdown:
Section |  min time  |  avg time  |  max time  |%varavg| %total
---------------------------------------------------------------
Pair    | 0.01918    | 0.01918    | 0.01918    |   0.0 | 89.24
Neigh   | 0.0014863  | 0.0014863  | 0.0014863  |   0.0 |  6.92
Comm    | 0.0004665  | 0.0004665  | 0.0004665  |   0.0 |  2.17
Output  | 5.64e-05   | 5.64e-05   | 5.64e-05   |   0.0 |  0.26
Modify  | 0.0002196  | 0.0002196  | 0.0002196  |   0.0 |  1.02
Other   |            | 8.41e-05   |            |       |  0.39

Nlocal:            864 ave         864 max         864 min
Histogram: 1 0 0 0 0 0 0 0 0 0
Nghost:           2329 ave        2329 max        2329 min
Histogram: 1 0 0 0 0 0 0 0 0 0
Neighs:          33140 ave       33140 max       33140 min
Histogram: 1 0 0 0 0 0 0 0 0 0

Total # of neighbors = 33140
Ave neighs/atom = 38.356481
Neighbor list builds = 2
Dangerous builds not checked
Total wall time: 0:00:00
