LAMMPS (30 Mar 2026 - Development - 91d4111-modified)
OMP_NUM_THREADS environment is not set. Defaulting to 1 thread.
  using 1 OpenMP thread(s) per MPI task
package omp 1
using multi-threaded neighbor list subroutines
# coul/long/cs correctness test (Step 4: pair_coul_long_cs_omp verification)
# PairCoulLongCS : public PairCoulLong (CORESHELL package, requires KSPACE).
# Pure Coulomb, identical formula to coul/long except for the core/shell
# r->0 regularization (rsq += EPSILON; modified Ewald-correction polynomial
# B0-B5 + EPS_EWALD/EPS_EWALD_SQR for the factor_coul<1.0 branch).
# init_style()/init_one() inherited unchanged from PairCoulLong, so the
# standard ncoultablebits table-lookup branch is active (tabinnersq~2.0).
# cut_coul = 4.0 (+0.3 skin = 4.3 < L/2 = 5.04 with this box).

units           lj
atom_style      charge

lattice         fcc 0.8442
Lattice spacing in x,y,z = 1.6795962 1.6795962 1.6795962
region          box block 0 6 0 6 0 6
create_box      2 box
Created orthogonal box = (0 0 0) to (10.077577 10.077577 10.077577)
  1 by 1 by 1 MPI processor grid
create_atoms    1 box basis 1 1 basis 2 2 basis 3 1 basis 4 2
Created 864 atoms
  using lattice units in orthogonal box = (0 0 0) to (10.077577 10.077577 10.077577)
  create_atoms CPU = 0.000 seconds
mass            1 1.0
mass            2 1.0
set             type 1 charge 1.0
Setting atom values ...
  432 settings made for charge
set             type 2 charge -1.0
Setting atom values ...
  432 settings made for charge

velocity        all create 3.0 87287 loop geom

kspace_style    ewald 1.0e-4

pair_style      coul/long/cs 4.0
pair_coeff      * *

neighbor        0.3 bin
neigh_modify    every 20 delay 0 check no

fix             1 all nve

thermo          10
run             50
Ewald initialization ...
  using 12-bit tables for long-range coulomb
  G vector (1/distance) = 0.75521758
  estimated absolute RMS force accuracy = 0.00010129749
  estimated relative force accuracy = 0.00010129749
  KSpace vectors: actual max1d max3d = 1054 8 2456
                  kxmax kymax kzmax  = 8 8 8
Generated 0 of 1 mixed pair_coeff terms from geometric mixing rule
Last active /omp style is kspace_style ewald/omp
Neighbor list info ...
  update: every = 20 steps, delay = 0 steps, check = no
  max neighbors/atom: 2000, page size: 100000
  master list distance cutoff = 4.3
  ghost atom cutoff = 4.3
  binsize = 2.15, bins = 5 5 5
  1 neighbor lists, perpetual/occasional/extra = 1 0 0
  (1) pair coul/long/cs/omp, perpetual
      attributes: half, newton on, omp
      pair build: half/bin/atomonly/newton/omp
      stencil: half/bin/3d
      bin: standard
Per MPI rank memory allocation (min/avg/max) = 16.77 | 16.77 | 16.77 Mbytes
   Step          Temp          E_pair         E_mol          TotEng         Press     
         0   3             -0.67124702     0              3.8235446      2.3407105    
        10   2.9996146     -0.67065127     0              3.823563       2.340631     
        20   3.0018864     -0.67404415     0              3.8235738      2.3415977    
        30   3.023667      -0.70662795     0              3.8236231      2.3507904    
        40   3.0658749     -0.7703715      0              3.8231182      2.36844      
        50   7.2292        -0.68398515     0              10.147264      5.9033825    
Loop time of 0.265103 on 1 procs for 50 steps with 864 atoms

Performance: 81477.704 tau/day, 188.606 timesteps/s, 162.955 katom-step/s
94.3% CPU use with 1 MPI tasks x 1 OpenMP threads

MPI task timing breakdown:
Section |  min time  |  avg time  |  max time  |%varavg| %total
---------------------------------------------------------------
Pair    | 0.045226   | 0.045226   | 0.045226   |   0.0 | 17.06
Kspace  | 0.21479    | 0.21479    | 0.21479    |   0.0 | 81.02
Neigh   | 0.0037319  | 0.0037319  | 0.0037319  |   0.0 |  1.41
Comm    | 0.0009004  | 0.0009004  | 0.0009004  |   0.0 |  0.34
Output  | 7.96e-05   | 7.96e-05   | 7.96e-05   |   0.0 |  0.03
Modify  | 0.0003374  | 0.0003374  | 0.0003374  |   0.0 |  0.13
Other   |            | 3.38e-05   |            |       |  0.01

Nlocal:            864 ave         864 max         864 min
Histogram: 1 0 0 0 0 0 0 0 0 0
Nghost:           4644 ave        4644 max        4644 min
Histogram: 1 0 0 0 0 0 0 0 0 0
Neighs:         120951 ave      120951 max      120951 min
Histogram: 1 0 0 0 0 0 0 0 0 0

Total # of neighbors = 120951
Ave neighs/atom = 139.98958
Neighbor list builds = 2
Dangerous builds not checked
Total wall time: 0:00:00
