LAMMPS (30 Mar 2026 - Development - 91d4111-modified)
OMP_NUM_THREADS environment is not set. Defaulting to 1 thread.
  using 1 OpenMP thread(s) per MPI task
# coul/cut speed test (Step 5: restrict/caching backport timing)
# Larger system + longer run than in.coul_cut_test to make Pair time
# dominate over OS/timer noise for a reliable speedup measurement.

units           lj
atom_style      charge

lattice         fcc 0.8442
Lattice spacing in x,y,z = 1.6795962 1.6795962 1.6795962
region          box block 0 12 0 12 0 12
create_box      2 box
Created orthogonal box = (0 0 0) to (20.155154 20.155154 20.155154)
  1 by 1 by 1 MPI processor grid
create_atoms    1 box basis 1 1 basis 2 2 basis 3 1 basis 4 2
Created 6912 atoms
  using lattice units in orthogonal box = (0 0 0) to (20.155154 20.155154 20.155154)
  create_atoms CPU = 0.001 seconds
mass            1 1.0
mass            2 1.0
set             type 1 charge 1.0
Setting atom values ...
  3456 settings made for charge
set             type 2 charge -1.0
Setting atom values ...
  3456 settings made for charge

velocity        all create 3.0 87287 loop geom

pair_style      coul/cut 2.5
pair_coeff      * *

neighbor        0.3 bin
neigh_modify    every 20 delay 0 check no

fix             1 all nve

thermo          50
run             300
Generated 0 of 1 mixed pair_coeff terms from geometric mixing rule
Neighbor list info ...
  update: every = 20 steps, delay = 0 steps, check = no
  max neighbors/atom: 2000, page size: 100000
  master list distance cutoff = 2.8
  ghost atom cutoff = 2.8
  binsize = 1.4, bins = 15 15 15
  1 neighbor lists, perpetual/occasional/extra = 1 0 0
  (1) pair coul/cut, perpetual
      attributes: half, newton on
      pair build: half/bin/atomonly/newton
      stencil: half/bin/3d
      bin: standard
Per MPI rank memory allocation (min/avg/max) = 3.893 | 3.893 | 3.893 Mbytes
   Step          Temp          E_pair         E_mol          TotEng         Press     
         0   3              0.68363291     0              5.1829819      2.7246079    
        50   3.1975885     -0.74593281     0              4.049756       2.4891082    
       100   4.2361379     -0.69654624     0              5.6567414      3.3796222    
       150   7.0822909     -0.72813308     0              9.8937664      5.7731084    
       200   9.3318502     -0.7197557      0              13.275994      7.6742689    
       250   12.011567     -0.72353589     0              17.291208      9.9350948    
       300   17.453021     -0.7053068      0              25.470438      14.533236    
Loop time of 0.594622 on 1 procs for 300 steps with 6912 atoms

Performance: 217953.517 tau/day, 504.522 timesteps/s, 3.487 Matom-step/s
97.2% CPU use with 1 MPI tasks x 1 OpenMP threads

MPI task timing breakdown:
Section |  min time  |  avg time  |  max time  |%varavg| %total
---------------------------------------------------------------
Pair    | 0.48299    | 0.48299    | 0.48299    |   0.0 | 81.23
Neigh   | 0.092487   | 0.092487   | 0.092487   |   0.0 | 15.55
Comm    | 0.0087573  | 0.0087573  | 0.0087573  |   0.0 |  1.47
Output  | 0.0001242  | 0.0001242  | 0.0001242  |   0.0 |  0.02
Modify  | 0.0081584  | 0.0081584  | 0.0081584  |   0.0 |  1.37
Other   |            | 0.002101   |            |       |  0.35

Nlocal:           6912 ave        6912 max        6912 min
Histogram: 1 0 0 0 0 0 0 0 0 0
Nghost:           7478 ave        7478 max        7478 min
Histogram: 1 0 0 0 0 0 0 0 0 0
Neighs:         267719 ave      267719 max      267719 min
Histogram: 1 0 0 0 0 0 0 0 0 0

Total # of neighbors = 267719
Ave neighs/atom = 38.732494
Neighbor list builds = 15
Dangerous builds not checked
Total wall time: 0:00:00
