LAMMPS (30 Mar 2026 - Development - 91d4111-modified)
OMP_NUM_THREADS environment is not set. Defaulting to 1 thread.
  using 1 OpenMP thread(s) per MPI task
# coul/cut correctness test (Step 5: restrict/caching backport verification)
# Exercises PairCoulCut::compute() with a binary +1/-1 charge mixture to verify
# the dbl3_t/_noalias/row-pointer-caching/fxtmp backport is bit-identical.

units           lj
atom_style      charge

lattice         fcc 0.8442
Lattice spacing in x,y,z = 1.6795962 1.6795962 1.6795962
region          box block 0 6 0 6 0 6
create_box      2 box
Created orthogonal box = (0 0 0) to (10.077577 10.077577 10.077577)
  1 by 1 by 1 MPI processor grid
create_atoms    1 box basis 1 1 basis 2 2 basis 3 1 basis 4 2
Created 864 atoms
  using lattice units in orthogonal box = (0 0 0) to (10.077577 10.077577 10.077577)
  create_atoms CPU = 0.000 seconds
mass            1 1.0
mass            2 1.0
set             type 1 charge 1.0
Setting atom values ...
  432 settings made for charge
set             type 2 charge -1.0
Setting atom values ...
  432 settings made for charge

velocity        all create 3.0 87287 loop geom

pair_style      coul/cut 2.5
pair_coeff      * *

neighbor        0.3 bin
neigh_modify    every 20 delay 0 check no

fix             1 all nve

thermo          10
run             50
Generated 0 of 1 mixed pair_coeff terms from geometric mixing rule
Neighbor list info ...
  update: every = 20 steps, delay = 0 steps, check = no
  max neighbors/atom: 2000, page size: 100000
  master list distance cutoff = 2.8
  ghost atom cutoff = 2.8
  binsize = 1.4, bins = 8 8 8
  1 neighbor lists, perpetual/occasional/extra = 1 0 0
  (1) pair coul/cut, perpetual
      attributes: half, newton on
      pair build: half/bin/atomonly/newton
      stencil: half/bin/3d
      bin: standard
Per MPI rank memory allocation (min/avg/max) = 2.816 | 2.816 | 2.816 Mbytes
   Step          Temp          E_pair         E_mol          TotEng         Press     
         0   3              0.68363291     0              5.1784246      2.7220431    
        10   2.9951344      0.12234047     0              4.6098422      2.5599926    
        20   2.9853152     -0.36823817     0              4.1045518      2.413664     
        30   2.9979127     -0.50369846     0              3.9879659      2.386168     
        40   3.0423792     -0.6515672      0              3.9067197      2.3820529    
        50   7.2738703     -0.65042797     0              10.247749      5.9504637    
Loop time of 0.0115341 on 1 procs for 50 steps with 864 atoms

Performance: 1872707.884 tau/day, 4334.972 timesteps/s, 3.745 Matom-step/s
0.0% CPU use with 1 MPI tasks x 1 OpenMP threads

MPI task timing breakdown:
Section |  min time  |  avg time  |  max time  |%varavg| %total
---------------------------------------------------------------
Pair    | 0.0093815  | 0.0093815  | 0.0093815  |   0.0 | 81.34
Neigh   | 0.0015343  | 0.0015343  | 0.0015343  |   0.0 | 13.30
Comm    | 0.0003703  | 0.0003703  | 0.0003703  |   0.0 |  3.21
Output  | 3.65e-05   | 3.65e-05   | 3.65e-05   |   0.0 |  0.32
Modify  | 0.0001588  | 0.0001588  | 0.0001588  |   0.0 |  1.38
Other   |            | 5.27e-05   |            |       |  0.46

Nlocal:            864 ave         864 max         864 min
Histogram: 1 0 0 0 0 0 0 0 0 0
Nghost:           2335 ave        2335 max        2335 min
Histogram: 1 0 0 0 0 0 0 0 0 0
Neighs:          33129 ave       33129 max       33129 min
Histogram: 1 0 0 0 0 0 0 0 0 0

Total # of neighbors = 33129
Ave neighs/atom = 38.34375
Neighbor list builds = 2
Dangerous builds not checked
Total wall time: 0:00:00
