LAMMPS (30 Mar 2026 - Development - 91d4111-modified)
OMP_NUM_THREADS environment is not set. Defaulting to 1 thread.
  using 1 OpenMP thread(s) per MPI task
package omp 4
set 4 OpenMP thread(s) per MPI task
using multi-threaded neighbor list subroutines
# dpd/fdt correctness test (Step 4: pair_dpd_fdt_omp verification)
# splitFDT_flag stays false (no fix shardlow), so this exercises the
# full conservative + dissipative + random force branch (needs
# comm_modify vel yes for ghost velocities and a per-thread RNG pool).

units           lj
atom_style      atomic
comm_modify     vel yes

lattice         fcc 0.8442
Lattice spacing in x,y,z = 1.6795962 1.6795962 1.6795962
region          box block 0 6 0 6 0 6
create_box      1 box
Created orthogonal box = (0 0 0) to (10.077577 10.077577 10.077577)
  1 by 1 by 1 MPI processor grid
create_atoms    1 box
Created 864 atoms
  using lattice units in orthogonal box = (0 0 0) to (10.077577 10.077577 10.077577)
  create_atoms CPU = 0.000 seconds
mass            1 1.0

velocity        all create 1.0 12345 loop geom

pair_style      dpd/fdt 1.0 1.5 98765
pair_coeff      * * 25.0 3.0

neighbor        0.3 bin
neigh_modify    every 20 delay 0 check no

fix             1 all nve

thermo          10
run             50
Generated 0 of 0 mixed pair_coeff terms from geometric mixing rule
Last active /omp style is pair_style dpd/fdt/omp
Neighbor list info ...
  update: every = 20 steps, delay = 0 steps, check = no
  max neighbors/atom: 2000, page size: 100000
  master list distance cutoff = 1.8
  ghost atom cutoff = 1.8
  binsize = 0.9, bins = 12 12 12
  1 neighbor lists, perpetual/occasional/extra = 1 0 0
  (1) pair dpd/fdt/omp, perpetual
      attributes: half, newton on, omp
      pair build: half/bin/atomonly/newton/omp
      stencil: half/bin/3d
      bin: standard
Per MPI rank memory allocation (min/avg/max) = 5.317 | 5.317 | 5.317 Mbytes
   Step          Temp          E_pair         E_mol          TotEng         Press     
         0   1              4.8780057      0              6.3762696      11.236857    
        10   0.93142117     4.9840522      0              6.3795669      11.016233    
        20   0.79318655     5.234933       0              6.4233358      10.36071     
        30   0.66153231     5.4897197      0              6.4808697      9.8267717    
        40   0.62515466     5.6155725      0              6.5522192      9.01326      
        50   0.65528577     5.6198166      0              6.6016076      9.6383796    
Loop time of 0.0055375 on 4 procs for 50 steps with 864 atoms

Performance: 3900677.201 tau/day, 9029.345 timesteps/s, 7.801 Matom-step/s
282.2% CPU use with 1 MPI tasks x 4 OpenMP threads

MPI task timing breakdown:
Section |  min time  |  avg time  |  max time  |%varavg| %total
---------------------------------------------------------------
Pair    | 0.0036313  | 0.0036313  | 0.0036313  |   0.0 | 65.58
Neigh   | 0.0003477  | 0.0003477  | 0.0003477  |   0.0 |  6.28
Comm    | 0.0008684  | 0.0008684  | 0.0008684  |   0.0 | 15.68
Output  | 2.55e-05   | 2.55e-05   | 2.55e-05   |   0.0 |  0.46
Modify  | 0.0006475  | 0.0006475  | 0.0006475  |   0.0 | 11.69
Other   |            | 1.71e-05   |            |       |  0.31

Nlocal:            864 ave         864 max         864 min
Histogram: 1 0 0 0 0 0 0 0 0 0
Nghost:           1366 ave        1366 max        1366 min
Histogram: 1 0 0 0 0 0 0 0 0 0
Neighs:           8053 ave        8053 max        8053 min
Histogram: 1 0 0 0 0 0 0 0 0 0

Total # of neighbors = 8053
Ave neighs/atom = 9.3206019
Neighbor list builds = 2
Dangerous builds not checked
Total wall time: 0:00:00
