LAMMPS (30 Mar 2026 - Development - 91d4111-modified)
OMP_NUM_THREADS environment is not set. Defaulting to 1 thread.
  using 1 OpenMP thread(s) per MPI task
# dpd/fdt correctness test (Step 4: pair_dpd_fdt_omp verification)
# splitFDT_flag stays false (no fix shardlow), so this exercises the
# full conservative + dissipative + random force branch (needs
# comm_modify vel yes for ghost velocities and a per-thread RNG pool).

units           lj
atom_style      atomic
comm_modify     vel yes

lattice         fcc 0.8442
Lattice spacing in x,y,z = 1.6795962 1.6795962 1.6795962
region          box block 0 6 0 6 0 6
create_box      1 box
Created orthogonal box = (0 0 0) to (10.077577 10.077577 10.077577)
  1 by 1 by 1 MPI processor grid
create_atoms    1 box
Created 864 atoms
  using lattice units in orthogonal box = (0 0 0) to (10.077577 10.077577 10.077577)
  create_atoms CPU = 0.000 seconds
mass            1 1.0

velocity        all create 1.0 12345 loop geom

pair_style      dpd/fdt 1.0 1.5 98765
pair_coeff      * * 25.0 3.0

neighbor        0.3 bin
neigh_modify    every 20 delay 0 check no

fix             1 all nve

thermo          10
run             50
Generated 0 of 0 mixed pair_coeff terms from geometric mixing rule
Neighbor list info ...
  update: every = 20 steps, delay = 0 steps, check = no
  max neighbors/atom: 2000, page size: 100000
  master list distance cutoff = 1.8
  ghost atom cutoff = 1.8
  binsize = 0.9, bins = 12 12 12
  1 neighbor lists, perpetual/occasional/extra = 1 0 0
  (1) pair dpd/fdt, perpetual
      attributes: half, newton on
      pair build: half/bin/atomonly/newton
      stencil: half/bin/3d
      bin: standard
Per MPI rank memory allocation (min/avg/max) = 2.667 | 2.667 | 2.667 Mbytes
   Step          Temp          E_pair         E_mol          TotEng         Press     
         0   1              4.8780057      0              6.3762696      11.319118    
        10   0.93795922     4.9823805      0              6.387691       11.246564    
        20   0.78858019     5.2245768      0              6.406078       10.883919    
        30   0.65690265     5.4602752      0              6.4444887      9.8793334    
        40   0.62182802     5.5779325      0              6.5095949      9.4284655    
        50   0.65748985     5.5954192      0              6.5805125      9.3600532    
Loop time of 0.0077772 on 1 procs for 50 steps with 864 atoms

Performance: 2777349.175 tau/day, 6429.049 timesteps/s, 5.555 Matom-step/s
200.9% CPU use with 1 MPI tasks x 1 OpenMP threads

MPI task timing breakdown:
Section |  min time  |  avg time  |  max time  |%varavg| %total
---------------------------------------------------------------
Pair    | 0.0065952  | 0.0065952  | 0.0065952  |   0.0 | 84.80
Neigh   | 0.0006039  | 0.0006039  | 0.0006039  |   0.0 |  7.77
Comm    | 0.0004004  | 0.0004004  | 0.0004004  |   0.0 |  5.15
Output  | 1.4e-05    | 1.4e-05    | 1.4e-05    |   0.0 |  0.18
Modify  | 0.0001293  | 0.0001293  | 0.0001293  |   0.0 |  1.66
Other   |            | 3.44e-05   |            |       |  0.44

Nlocal:            864 ave         864 max         864 min
Histogram: 1 0 0 0 0 0 0 0 0 0
Nghost:           1354 ave        1354 max        1354 min
Histogram: 1 0 0 0 0 0 0 0 0 0
Neighs:           8046 ave        8046 max        8046 min
Histogram: 1 0 0 0 0 0 0 0 0 0

Total # of neighbors = 8046
Ave neighs/atom = 9.3125
Neighbor list builds = 2
Dangerous builds not checked
Total wall time: 0:00:00
