LAMMPS (30 Mar 2026 - Development - 91d4111)
  using 4 OpenMP thread(s) per MPI task
Lattice spacing in x,y,z = 1.6795962 1.6795962 1.6795962
Created orthogonal box = (0 0 0) to (33.591924 33.591924 33.591924)
  1 by 1 by 1 MPI processor grid
Created 32000 atoms
  using lattice units in orthogonal box = (0 0 0) to (33.591924 33.591924 33.591924)
  create_atoms CPU = 0.002 seconds
Generated 0 of 0 mixed pair_coeff terms from geometric mixing rule
Neighbor list info ...
  update: every = 20 steps, delay = 0 steps, check = no
  max neighbors/atom: 2000, page size: 100000
  master list distance cutoff = 2.8
  ghost atom cutoff = 2.8
  binsize = 1.4, bins = 24 24 24
  1 neighbor lists, perpetual/occasional/extra = 1 0 0
  (1) pair lj/cut, perpetual
      attributes: half, newton on
      pair build: half/bin/atomonly/newton
      stencil: half/bin/3d
      bin: standard
Setting up Verlet run ...
  Unit style    : lj
  Current step  : 0
  Time step     : 0.005
Per MPI rank memory allocation (min/avg/max) = 20.97 | 20.97 | 20.97 Mbytes
   Step          Temp          E_pair         E_mol          TotEng         Press     
         0   3             -6.7733681      0             -2.2735087     -3.7027964    
       100   1.6492558     -4.7541379      0             -2.2803315      5.8212694    
       200   1.6457604     -4.7487045      0             -2.280141       5.8596275    
       300   1.6412687     -4.7424525      0             -2.2806265      5.8803458    
       400   1.6382993     -4.7386135      0             -2.2812414      5.8957894    
       500   1.6480575     -4.7542394      0             -2.2822304      5.8365715    
Loop time of 4.07402 on 4 procs for 500 steps with 32000 atoms

Performance: 53018.932 tau/day, 122.729 timesteps/s, 3.927 Matom-step/s
172.6% CPU use with 1 MPI tasks x 4 OpenMP threads

MPI task timing breakdown:
Section |  min time  |  avg time  |  max time  |%varavg| %total
---------------------------------------------------------------
Pair    | 3.2884     | 3.2884     | 3.2884     |   0.0 | 80.72
Neigh   | 0.64662    | 0.64662    | 0.64662    |   0.0 | 15.87
Comm    | 0.043033   | 0.043033   | 0.043033   |   0.0 |  1.06
Output  | 0.000302   | 0.000302   | 0.000302   |   0.0 |  0.01
Modify  | 0.080919   | 0.080919   | 0.080919   |   0.0 |  1.99
Other   |            | 0.01478    |            |       |  0.36

Nlocal:          32000 ave       32000 max       32000 min
Histogram: 1 0 0 0 0 0 0 0 0 0
Nghost:          18857 ave       18857 max       18857 min
Histogram: 1 0 0 0 0 0 0 0 0 0
Neighs:    1.21197e+06 ave 1.21197e+06 max 1.21197e+06 min
Histogram: 1 0 0 0 0 0 0 0 0 0

Total # of neighbors = 1211972
Ave neighs/atom = 37.874125
Neighbor list builds = 25
Dangerous builds not checked
Total wall time: 0:00:04
