LAMMPS (30 Mar 2026 - Development - 91d4111-modified)
OMP_NUM_THREADS environment is not set. Defaulting to 1 thread.
  using 1 OpenMP thread(s) per MPI task
# lj/cut rRESPA correctness test (Step 5: compute_inner/middle/outer backport verification)
# Exercises PairLJCut::compute_inner(), compute_middle(), compute_outer() via
# run_style respa, to verify the dbl3_t/_noalias/per-type row-pointer-caching
# backport (validated bit-identical for compute()) is also bit-identical for
# the rRESPA code paths.

units           lj
atom_style      atomic

lattice         fcc 0.8442
Lattice spacing in x,y,z = 1.6795962 1.6795962 1.6795962
region          box block 0 6 0 6 0 6
create_box      1 box
Created orthogonal box = (0 0 0) to (10.077577 10.077577 10.077577)
  1 by 1 by 1 MPI processor grid
create_atoms    1 box
Created 864 atoms
  using lattice units in orthogonal box = (0 0 0) to (10.077577 10.077577 10.077577)
  create_atoms CPU = 0.000 seconds
mass            1 1.0

velocity        all create 3.0 87287 loop geom

pair_style      lj/cut 2.5
pair_coeff      1 1 1.0 1.0 2.5

neighbor        0.3 bin
neigh_modify    every 20 delay 0 check no

fix             1 all nve

timestep        0.002
run_style       respa 3 2 2 inner 1 1.0 1.2 middle 2 1.6 1.8 outer 3
Respa levels:
  1 = bond angle dihedral improper pair-inner
  2 = pair-middle
  3 = pair-outer kspace

thermo          10
run             50
Generated 0 of 0 mixed pair_coeff terms from geometric mixing rule
Neighbor list info ...
  update: every = 20 steps, delay = 0 steps, check = no
  max neighbors/atom: 2000, page size: 100000
  master list distance cutoff = 2.8
  ghost atom cutoff = 2.8
  binsize = 1.4, bins = 8 8 8
  1 neighbor lists, perpetual/occasional/extra = 1 0 0
  (1) pair lj/cut, perpetual
      attributes: half, newton on, respa outer/middle/inner
      pair build: half/respa/bin/newton
      stencil: half/bin/3d
      bin: standard
Per MPI rank memory allocation (min/avg/max) = 5.062 | 5.062 | 5.062 Mbytes
   Step          Temp          E_pair         E_mol          TotEng         Press     
         0   3             -6.7733681      0             -2.2785764     -3.7056485    
        10   2.9137165     -6.6437756      0             -2.2782593     -2.9477864    
        20   2.5114485     -6.0402047      0             -2.2773921     -0.073746037  
        30   1.7559018     -4.9129912      0             -2.2821869      4.622118     
        40   1.5365322     -4.5871314      0             -2.2850007      6.2812308    
        50   1.6601947     -4.7736012      0             -2.2861914      5.8098098    
Loop time of 0.0396739 on 1 procs for 50 steps with 864 atoms

Performance: 217775.414 tau/day, 1260.274 timesteps/s, 1.089 Matom-step/s
78.8% CPU use with 1 MPI tasks x 1 OpenMP threads

MPI task timing breakdown:
Section |  min time  |  avg time  |  max time  |%varavg| %total
---------------------------------------------------------------
Pair    | 0.033507   | 0.033507   | 0.033507   |   0.0 | 84.46
Neigh   | 0.0020049  | 0.0020049  | 0.0020049  |   0.0 |  5.05
Comm    | 0.0019842  | 0.0019842  | 0.0019842  |   0.0 |  5.00
Output  | 5.2e-05    | 5.2e-05    | 5.2e-05    |   0.0 |  0.13
Modify  | 0.0010709  | 0.0010709  | 0.0010709  |   0.0 |  2.70
Other   |            | 0.001055   |            |       |  2.66

Nlocal:            864 ave         864 max         864 min
Histogram: 1 0 0 0 0 0 0 0 0 0
Nghost:           2565 ave        2565 max        2565 min
Histogram: 1 0 0 0 0 0 0 0 0 0
Neighs:          32573 ave       32573 max       32573 min
Histogram: 1 0 0 0 0 0 0 0 0 0

Total # of neighbors = 32573
Ave neighs/atom = 37.700231
Neighbor list builds = 2
Dangerous builds not checked
Total wall time: 0:00:00
