LAMMPS (30 Mar 2026 - Development - 91d4111-modified)
OMP_NUM_THREADS environment is not set. Defaulting to 1 thread.
  using 1 OpenMP thread(s) per MPI task
package omp 0
using multi-threaded neighbor list subroutines
# lj/cut/coul/long/cs correctness test (Step 4: pair_lj_cut_coul_long_cs_omp verification)
# PairLJCutCoulLongCS : public PairLJCutCoulLong (CORESHELL package).
# Standard LJ 12-6 (cutsq/cut_ljsq) + CS-pattern Ewald-table Coulomb (rsq+=EPSILON,
# B0-B5 erfc polynomial, EPS_EWALD/EPS_EWALD_SQR regularization).
# cut_lj=cut_coul=4.0 (+0.3 skin = 4.3 < L/2 = 5.04 with this box).

units           lj
atom_style      charge
kspace_style    ewald 1.0e-4

lattice         fcc 0.8442
Lattice spacing in x,y,z = 1.6795962 1.6795962 1.6795962
region          box block 0 6 0 6 0 6
create_box      2 box
Created orthogonal box = (0 0 0) to (10.077577 10.077577 10.077577)
  1 by 1 by 1 MPI processor grid
create_atoms    1 box basis 1 1 basis 2 2 basis 3 1 basis 4 2
Created 864 atoms
  using lattice units in orthogonal box = (0 0 0) to (10.077577 10.077577 10.077577)
  create_atoms CPU = 0.000 seconds
mass            1 1.0
mass            2 1.0
set             type 1 charge 1.0
Setting atom values ...
  432 settings made for charge
set             type 2 charge -1.0
Setting atom values ...
  432 settings made for charge

velocity        all create 3.0 87287 loop geom

pair_style      lj/cut/coul/long/cs 4.0
pair_coeff      * * 1.0 1.0

neighbor        0.3 bin
neigh_modify    every 20 delay 0 check no

fix             1 all nve

thermo          10
run             50
Ewald initialization ...
  using 12-bit tables for long-range coulomb
  G vector (1/distance) = 0.75521758
  estimated absolute RMS force accuracy = 0.00010129749
  estimated relative force accuracy = 0.00010129749
  KSpace vectors: actual max1d max3d = 1054 8 2456
                  kxmax kymax kzmax  = 8 8 8
Generated 0 of 1 mixed pair_coeff terms from geometric mixing rule
No /omp style for force computation currently active
Neighbor list info ...
  update: every = 20 steps, delay = 0 steps, check = no
  max neighbors/atom: 2000, page size: 100000
  master list distance cutoff = 4.3
  ghost atom cutoff = 4.3
  binsize = 2.15, bins = 5 5 5
  1 neighbor lists, perpetual/occasional/extra = 1 0 0
  (1) pair lj/cut/coul/long/cs, perpetual
      attributes: half, newton on, omp
      pair build: half/bin/atomonly/newton/omp
      stencil: half/bin/3d
      bin: standard
Per MPI rank memory allocation (min/avg/max) = 16.77 | 16.77 | 16.77 Mbytes
   Step          Temp          E_pair         E_mol          TotEng         Press     
         0   3             -7.7805069      0             -3.2857152     -4.4607645    
        10   2.1276774     -6.4731365      0             -3.2853142      1.586014     
        20   1.654475      -5.7652922      0             -3.2864521      5.0708383    
        30   1.6257092     -5.7221411      0             -3.2863997      5.1802504    
        40   1.5892475     -5.6676065      0             -3.2864944      5.2839733    
        50   1.7348154     -5.8862702      0             -3.287059       4.3554257    
Loop time of 0.259263 on 1 procs for 50 steps with 864 atoms

Performance: 83313.148 tau/day, 192.855 timesteps/s, 166.626 katom-step/s
102.5% CPU use with 1 MPI tasks x 1 OpenMP threads

MPI task timing breakdown:
Section |  min time  |  avg time  |  max time  |%varavg| %total
---------------------------------------------------------------
Pair    | 0.056301   | 0.056301   | 0.056301   |   0.0 | 21.72
Kspace  | 0.19786    | 0.19786    | 0.19786    |   0.0 | 76.32
Neigh   | 0.0035921  | 0.0035921  | 0.0035921  |   0.0 |  1.39
Comm    | 0.000973   | 0.000973   | 0.000973   |   0.0 |  0.38
Output  | 7.79e-05   | 7.79e-05   | 7.79e-05   |   0.0 |  0.03
Modify  | 0.0004118  | 0.0004118  | 0.0004118  |   0.0 |  0.16
Other   |            | 4.87e-05   |            |       |  0.02

Nlocal:            864 ave         864 max         864 min
Histogram: 1 0 0 0 0 0 0 0 0 0
Nghost:           4802 ave        4802 max        4802 min
Histogram: 1 0 0 0 0 0 0 0 0 0
Neighs:         121643 ave      121643 max      121643 min
Histogram: 1 0 0 0 0 0 0 0 0 0

Total # of neighbors = 121643
Ave neighs/atom = 140.79051
Neighbor list builds = 2
Dangerous builds not checked
Total wall time: 0:00:00
