LAMMPS (30 Mar 2026 - Development - 91d4111-modified)
OMP_NUM_THREADS environment is not set. Defaulting to 1 thread.
  using 1 OpenMP thread(s) per MPI task
# lj/cut rRESPA speed test (Step 5: compute_inner/middle/outer backport timing)
# Larger system + run_style respa to make the rRESPA Pair sub-computations
# (inner/middle/outer) dominate over OS/timer noise for a reliable
# speedup measurement.

units           lj
atom_style      atomic

lattice         fcc 0.8442
Lattice spacing in x,y,z = 1.6795962 1.6795962 1.6795962
region          box block 0 12 0 12 0 12
create_box      1 box
Created orthogonal box = (0 0 0) to (20.155154 20.155154 20.155154)
  1 by 1 by 1 MPI processor grid
create_atoms    1 box
Created 6912 atoms
  using lattice units in orthogonal box = (0 0 0) to (20.155154 20.155154 20.155154)
  create_atoms CPU = 0.001 seconds
mass            1 1.0

velocity        all create 3.0 87287 loop geom

pair_style      lj/cut 2.5
pair_coeff      1 1 1.0 1.0 2.5

neighbor        0.3 bin
neigh_modify    every 20 delay 0 check no

fix             1 all nve

timestep        0.002
run_style       respa 3 2 2 inner 1 1.0 1.2 middle 2 1.6 1.8 outer 3
Respa levels:
  1 = bond angle dihedral improper pair-inner
  2 = pair-middle
  3 = pair-outer kspace

thermo          50
run             100
Generated 0 of 0 mixed pair_coeff terms from geometric mixing rule
Neighbor list info ...
  update: every = 20 steps, delay = 0 steps, check = no
  max neighbors/atom: 2000, page size: 100000
  master list distance cutoff = 2.8
  ghost atom cutoff = 2.8
  binsize = 1.4, bins = 15 15 15
  1 neighbor lists, perpetual/occasional/extra = 1 0 0
  (1) pair lj/cut, perpetual
      attributes: half, newton on, respa outer/middle/inner
      pair build: half/respa/bin/newton
      stencil: half/bin/3d
      bin: standard
Per MPI rank memory allocation (min/avg/max) = 6.494 | 6.494 | 6.494 Mbytes
   Step          Temp          E_pair         E_mol          TotEng         Press     
         0   3             -6.7733681      0             -2.2740191     -3.7030837    
        50   1.6538213     -4.7632419      0             -2.2828689      5.8109487    
       100   1.6692922     -4.7847071      0             -2.2811311      5.6859572    
Loop time of 0.649879 on 1 procs for 100 steps with 6912 atoms

Performance: 26589.569 tau/day, 153.875 timesteps/s, 1.064 Matom-step/s
98.6% CPU use with 1 MPI tasks x 1 OpenMP threads

MPI task timing breakdown:
Section |  min time  |  avg time  |  max time  |%varavg| %total
---------------------------------------------------------------
Pair    | 0.57007    | 0.57007    | 0.57007    |   0.0 | 87.72
Neigh   | 0.032953   | 0.032953   | 0.032953   |   0.0 |  5.07
Comm    | 0.013663   | 0.013663   | 0.013663   |   0.0 |  2.10
Output  | 4.17e-05   | 4.17e-05   | 4.17e-05   |   0.0 |  0.01
Modify  | 0.017851   | 0.017851   | 0.017851   |   0.0 |  2.75
Other   |            | 0.0153     |            |       |  2.35

Nlocal:           6912 ave        6912 max        6912 min
Histogram: 1 0 0 0 0 0 0 0 0 0
Nghost:           7792 ave        7792 max        7792 min
Histogram: 1 0 0 0 0 0 0 0 0 0
Neighs:         261518 ave      261518 max      261518 min
Histogram: 1 0 0 0 0 0 0 0 0 0

Total # of neighbors = 261518
Ave neighs/atom = 37.835359
Neighbor list builds = 5
Dangerous builds not checked
Total wall time: 0:00:00
