LAMMPS (30 Mar 2026 - Development - 91d4111-modified)
OMP_NUM_THREADS environment is not set. Defaulting to 1 thread.
  using 1 OpenMP thread(s) per MPI task
package omp 4
set 4 OpenMP thread(s) per MPI task
using multi-threaded neighbor list subroutines
# mdpd correctness test (Step 4: pair_mdpd_omp verification)
# atom_style mdpd provides the per-atom rho array required by pair_style
# mdpd; rho is set to a uniform nonzero value via "set ... sph/rho" (the
# underlying atom->rho array is shared with atom_style sph), since no
# density-summation fix is needed to exercise the ported force formula.
# cut_r (1.5) < cut (2.0) so both the B_rep*wc_r branch (1st neighbor
# shell, r~1.19) and the wc_r=0 clamp (2nd shell, r~1.68) are exercised.
# comm_modify vel yes is required (pair mdpd needs ghost atom velocities).

units           lj
atom_style      mdpd
comm_modify     vel yes

lattice         fcc 0.8442
Lattice spacing in x,y,z = 1.6795962 1.6795962 1.6795962
region          box block 0 6 0 6 0 6
create_box      1 box
Created orthogonal box = (0 0 0) to (10.077577 10.077577 10.077577)
  1 by 1 by 1 MPI processor grid
create_atoms    1 box
Created 864 atoms
  using lattice units in orthogonal box = (0 0 0) to (10.077577 10.077577 10.077577)
  create_atoms CPU = 0.000 seconds
mass            1 1.0

set             group all sph/rho 1.0
Setting atom values ...
  864 settings made for sph/rho

velocity        all create 1.0 12345 loop geom

pair_style      mdpd 1.0 2.0 98765
pair_coeff      * * -40.0 25.0 18.0 2.0 1.5

neighbor        0.3 bin
neigh_modify    every 20 delay 0 check no

fix             1 all nve

thermo          10
run             50

CITE-CITE-CITE-CITE-CITE-CITE-CITE-CITE-CITE-CITE-CITE-CITE-CITE

Your simulation uses code contributions which should be cited:

- pair mdpd command: https://doi.org/10.1063/1.4812366

@Article{ZLi2013_POF,
 author = {Li, Z. and Hu, G. H. and Wang, Z. L. and Ma Y. B. and Zhou, Z. W.},
 title = {Three Dimensional Flow Structures in a Moving Droplet on Substrate: a Dissipative Particle Dynamics Study},
 journal = {Physics of Fluids},
 year = {2013},
 volume = {25},
 number = {7},
 pages = {072103}
}

CITE-CITE-CITE-CITE-CITE-CITE-CITE-CITE-CITE-CITE-CITE-CITE-CITE

Generated 0 of 0 mixed pair_coeff terms from geometric mixing rule
Last active /omp style is pair_style mdpd/omp
Neighbor list info ...
  update: every = 20 steps, delay = 0 steps, check = no
  max neighbors/atom: 2000, page size: 100000
  master list distance cutoff = 2.3
  ghost atom cutoff = 2.3
  binsize = 1.15, bins = 9 9 9
  1 neighbor lists, perpetual/occasional/extra = 1 0 0
  (1) pair mdpd/omp, perpetual
      attributes: half, newton on, omp
      pair build: half/bin/atomonly/newton/omp
      stencil: half/bin/3d
      bin: standard
Per MPI rank memory allocation (min/avg/max) = 6.513 | 6.513 | 6.513 Mbytes
   Step          Temp          E_pair         E_mol          TotEng         Press     
         0   1             -32.918122      0             -31.419858     -20.549302    
        10   0.94908879    -32.767756      0             -31.34577      -20.05482     
        20   0.90750989    -32.625319      0             -31.265629     -22.035981    
        30   0.91851943    -32.574054      0             -31.197869     -23.030534    
        40   1.0343369     -32.621058      0             -31.071349     -23.123891    
        50   1.0728089     -32.717135      0             -31.109784     -27.178327    
Loop time of 0.0126377 on 4 procs for 50 steps with 864 atoms

Performance: 1709171.764 tau/day, 3956.416 timesteps/s, 3.418 Matom-step/s
123.6% CPU use with 1 MPI tasks x 4 OpenMP threads

MPI task timing breakdown:
Section |  min time  |  avg time  |  max time  |%varavg| %total
---------------------------------------------------------------
Pair    | 0.0091786  | 0.0091786  | 0.0091786  |   0.0 | 72.63
Neigh   | 0.0006229  | 0.0006229  | 0.0006229  |   0.0 |  4.93
Comm    | 0.0019693  | 0.0019693  | 0.0019693  |   0.0 | 15.58
Output  | 4.79e-05   | 4.79e-05   | 4.79e-05   |   0.0 |  0.38
Modify  | 0.0007822  | 0.0007822  | 0.0007822  |   0.0 |  6.19
Other   |            | 3.68e-05   |            |       |  0.29

Nlocal:            864 ave         864 max         864 min
Histogram: 1 0 0 0 0 0 0 0 0 0
Nghost:           1635 ave        1635 max        1635 min
Histogram: 1 0 0 0 0 0 0 0 0 0
Neighs:          18912 ave       18912 max       18912 min
Histogram: 1 0 0 0 0 0 0 0 0 0

Total # of neighbors = 18912
Ave neighs/atom = 21.888889
Neighbor list builds = 2
Dangerous builds not checked
Total wall time: 0:00:00
