LAMMPS (30 Mar 2026 - Development - 91d4111-modified)
OMP_NUM_THREADS environment is not set. Defaulting to 1 thread.
  using 1 OpenMP thread(s) per MPI task
# nm/cut/split correctness test (Step 4: pair_nm_cut_split_omp verification)
# Compares standard PairNMCutSplit vs the new OMP variant for numeric round-off.

units           lj
atom_style      atomic

lattice         fcc 0.8442
Lattice spacing in x,y,z = 1.6795962 1.6795962 1.6795962
region          box block 0 6 0 6 0 6
create_box      1 box
Created orthogonal box = (0 0 0) to (10.077577 10.077577 10.077577)
  1 by 1 by 1 MPI processor grid
create_atoms    1 box
Created 864 atoms
  using lattice units in orthogonal box = (0 0 0) to (10.077577 10.077577 10.077577)
  create_atoms CPU = 0.000 seconds
mass            1 1.0

velocity        all create 3.0 87287 loop geom

pair_style      nm/cut/split 2.5
pair_coeff      1 1 1.0 1.1246 12 6

neighbor        0.3 bin
neigh_modify    every 20 delay 0 check no

fix             1 all nve

thermo          10
run             50
Generated 0 of 0 mixed pair_coeff terms from geometric mixing rule
Neighbor list info ...
  update: every = 20 steps, delay = 0 steps, check = no
  max neighbors/atom: 2000, page size: 100000
  master list distance cutoff = 2.8
  ghost atom cutoff = 2.8
  binsize = 1.4, bins = 8 8 8
  1 neighbor lists, perpetual/occasional/extra = 1 0 0
  (1) pair nm/cut/split, perpetual
      attributes: half, newton on
      pair build: half/bin/atomonly/newton
      stencil: half/bin/3d
      bin: standard
Per MPI rank memory allocation (min/avg/max) = 2.674 | 2.674 | 2.674 Mbytes
   Step          Temp          E_pair         E_mol          TotEng         Press     
         0   3             -6.7733681      0             -2.2785764     -3.7056485    
        10   2.1084163     -5.4398105      0             -2.2808465      2.4964758    
        20   1.6537626     -4.7659534      0             -2.2881806      5.8989404    
        30   1.6239865     -4.7206284      0             -2.2874681      6.0525011    
        40   1.5988011     -4.6818004      0             -2.2863744      6.1424212    
        50   1.7479591     -4.9043894      0             -2.2854853      5.2410964    
Loop time of 0.0329433 on 1 procs for 50 steps with 864 atoms

Performance: 655672.018 tau/day, 1517.759 timesteps/s, 1.311 Matom-step/s
0.0% CPU use with 1 MPI tasks x 1 OpenMP threads

MPI task timing breakdown:
Section |  min time  |  avg time  |  max time  |%varavg| %total
---------------------------------------------------------------
Pair    | 0.029273   | 0.029273   | 0.029273   |   0.0 | 88.86
Neigh   | 0.0026156  | 0.0026156  | 0.0026156  |   0.0 |  7.94
Comm    | 0.0006328  | 0.0006328  | 0.0006328  |   0.0 |  1.92
Output  | 5.23e-05   | 5.23e-05   | 5.23e-05   |   0.0 |  0.16
Modify  | 0.0002762  | 0.0002762  | 0.0002762  |   0.0 |  0.84
Other   |            | 9.29e-05   |            |       |  0.28

Nlocal:            864 ave         864 max         864 min
Histogram: 1 0 0 0 0 0 0 0 0 0
Nghost:           2483 ave        2483 max        2483 min
Histogram: 1 0 0 0 0 0 0 0 0 0
Neighs:          32699 ave       32699 max       32699 min
Histogram: 1 0 0 0 0 0 0 0 0 0

Total # of neighbors = 32699
Ave neighs/atom = 37.846065
Neighbor list builds = 2
Dangerous builds not checked
Total wall time: 0:00:00
