LAMMPS (30 Mar 2026 - Development - 91d4111-modified)
OMP_NUM_THREADS environment is not set. Defaulting to 1 thread.
  using 1 OpenMP thread(s) per MPI task
# nm/cut/split speed test (Step 5: restrict/caching backport timing)
# Larger system + longer run than in.nm_cut_split_test to make Pair time
# dominate over OS/timer noise for a reliable speedup measurement.

units           lj
atom_style      atomic

lattice         fcc 0.8442
Lattice spacing in x,y,z = 1.6795962 1.6795962 1.6795962
region          box block 0 12 0 12 0 12
create_box      1 box
Created orthogonal box = (0 0 0) to (20.155154 20.155154 20.155154)
  1 by 1 by 1 MPI processor grid
create_atoms    1 box
Created 6912 atoms
  using lattice units in orthogonal box = (0 0 0) to (20.155154 20.155154 20.155154)
  create_atoms CPU = 0.001 seconds
mass            1 1.0

velocity        all create 3.0 87287 loop geom

pair_style      nm/cut/split 2.5
pair_coeff      1 1 1.0 1.1246 12 6

neighbor        0.3 bin
neigh_modify    every 20 delay 0 check no

fix             1 all nve

thermo          50
run             300
Generated 0 of 0 mixed pair_coeff terms from geometric mixing rule
Neighbor list info ...
  update: every = 20 steps, delay = 0 steps, check = no
  max neighbors/atom: 2000, page size: 100000
  master list distance cutoff = 2.8
  ghost atom cutoff = 2.8
  binsize = 1.4, bins = 15 15 15
  1 neighbor lists, perpetual/occasional/extra = 1 0 0
  (1) pair nm/cut/split, perpetual
      attributes: half, newton on
      pair build: half/bin/atomonly/newton
      stencil: half/bin/3d
      bin: standard
Per MPI rank memory allocation (min/avg/max) = 3.724 | 3.724 | 3.724 Mbytes
   Step          Temp          E_pair         E_mol          TotEng         Press     
         0   3             -6.7733681      0             -2.2740191     -3.7030837    
        50   1.6490278     -4.7554579      0             -2.282274       5.8383962    
       100   1.6454797     -4.7489347      0             -2.2810722      5.8788778    
       150   1.6572092     -4.7667782      0             -2.281324       5.8636187    
       200   1.6483279     -4.7532968      0             -2.2811626      5.9126962    
       250   1.6341929     -4.7322219      0             -2.2812873      5.9836805    
       300   1.6531199     -4.7612852      0             -2.2819641      5.8620685    
Loop time of 0.847378 on 1 procs for 300 steps with 6912 atoms

Performance: 152942.407 tau/day, 354.033 timesteps/s, 2.447 Matom-step/s
97.7% CPU use with 1 MPI tasks x 1 OpenMP threads

MPI task timing breakdown:
Section |  min time  |  avg time  |  max time  |%varavg| %total
---------------------------------------------------------------
Pair    | 0.74233    | 0.74233    | 0.74233    |   0.0 | 87.60
Neigh   | 0.084772   | 0.084772   | 0.084772   |   0.0 | 10.00
Comm    | 0.0087492  | 0.0087492  | 0.0087492  |   0.0 |  1.03
Output  | 0.0001219  | 0.0001219  | 0.0001219  |   0.0 |  0.01
Modify  | 0.0092654  | 0.0092654  | 0.0092654  |   0.0 |  1.09
Other   |            | 0.002138   |            |       |  0.25

Nlocal:           6912 ave        6912 max        6912 min
Histogram: 1 0 0 0 0 0 0 0 0 0
Nghost:           7530 ave        7530 max        7530 min
Histogram: 1 0 0 0 0 0 0 0 0 0
Neighs:         261712 ave      261712 max      261712 min
Histogram: 1 0 0 0 0 0 0 0 0 0

Total # of neighbors = 261712
Ave neighs/atom = 37.863426
Neighbor list builds = 15
Dangerous builds not checked
Total wall time: 0:00:00
