LAMMPS (30 Mar 2026 - Development - 91d4111)
  using 8 OpenMP thread(s) per MPI task
Lattice spacing in x,y,z = 1.6795962 1.6795962 1.6795962
Created orthogonal box = (0 0 0) to (16.795962 16.795962 16.795962)
  1 by 1 by 1 MPI processor grid
Created 4000 atoms
  using lattice units in orthogonal box = (0 0 0) to (16.795962 16.795962 16.795962)
  create_atoms CPU = 0.000 seconds
Generated 0 of 0 mixed pair_coeff terms from geometric mixing rule
Neighbor list info ...
  update: every = 20 steps, delay = 0 steps, check = no
  max neighbors/atom: 2000, page size: 100000
  master list distance cutoff = 2.8
  ghost atom cutoff = 2.8
  binsize = 1.4, bins = 12 12 12
  1 neighbor lists, perpetual/occasional/extra = 1 0 0
  (1) pair lj/cut, perpetual
      attributes: half, newton on
      pair build: half/bin/atomonly/newton
      stencil: half/bin/3d
      bin: standard
Setting up Verlet run ...
  Unit style    : lj
  Current step  : 0
  Time step     : 0.005
Per MPI rank memory allocation (min/avg/max) = 9.392 | 9.392 | 9.392 Mbytes
   Step          Temp          E_pair         E_mol          TotEng         Press     
         0   3             -6.7733681      0             -2.2744931     -3.7033504    
        50   1.6842865     -4.8082494      0             -2.2824513      5.5666131    
       100   1.6712577     -4.7875609      0             -2.281301       5.6613913    
       150   1.6444751     -4.7471034      0             -2.2810074      5.8614211    
       200   1.6471542     -4.7509053      0             -2.2807916      5.8805431    
       250   1.6645597     -4.7774327      0             -2.2812174      5.7526089    
Loop time of 0.25219 on 8 procs for 250 steps with 4000 atoms

Performance: 428248.203 tau/day, 991.315 timesteps/s, 3.965 Matom-step/s
408.9% CPU use with 1 MPI tasks x 8 OpenMP threads

MPI task timing breakdown:
Section |  min time  |  avg time  |  max time  |%varavg| %total
---------------------------------------------------------------
Pair    | 0.20347    | 0.20347    | 0.20347    |   0.0 | 80.68
Neigh   | 0.039675   | 0.039675   | 0.039675   |   0.0 | 15.73
Comm    | 0.0042625  | 0.0042625  | 0.0042625  |   0.0 |  1.69
Output  | 7.87e-05   | 7.87e-05   | 7.87e-05   |   0.0 |  0.03
Modify  | 0.0036552  | 0.0036552  | 0.0036552  |   0.0 |  1.45
Other   |            | 0.001054   |            |       |  0.42

Nlocal:           4000 ave        4000 max        4000 min
Histogram: 1 0 0 0 0 0 0 0 0 0
Nghost:           5506 ave        5506 max        5506 min
Histogram: 1 0 0 0 0 0 0 0 0 0
Neighs:         151788 ave      151788 max      151788 min
Histogram: 1 0 0 0 0 0 0 0 0 0

Total # of neighbors = 151788
Ave neighs/atom = 37.947
Neighbor list builds = 12
Dangerous builds not checked
Total wall time: 0:00:00
