LAMMPS (30 Mar 2026 - Development - 91d4111-modified)
OMP_NUM_THREADS environment is not set. Defaulting to 1 thread.
  using 1 OpenMP thread(s) per MPI task
# coul/cut/soft/gapsys correctness test (Step 4: pair_coul_cut_soft_gapsys_omp verification)
# Compares standard PairCoulCutSoftGapsys vs the new OMP variant for numeric round-off.
# Binary +1/-1 charge mixture, cut_inner=alphaq=1.15 sits just below the fcc
# nearest-neighbor distance (~1.1877) so both the soft-core (r<cut_inner) and
# standard 1/r (cut_inner<=r<cutoff) branches of compute() get exercised.

units           lj
atom_style      charge

lattice         fcc 0.8442
Lattice spacing in x,y,z = 1.6795962 1.6795962 1.6795962
region          box block 0 6 0 6 0 6
create_box      2 box
Created orthogonal box = (0 0 0) to (10.077577 10.077577 10.077577)
  1 by 1 by 1 MPI processor grid
create_atoms    1 box basis 1 1 basis 2 2 basis 3 1 basis 4 2
Created 864 atoms
  using lattice units in orthogonal box = (0 0 0) to (10.077577 10.077577 10.077577)
  create_atoms CPU = 0.000 seconds
mass            1 1.0
mass            2 1.0
set             type 1 charge 1.0
Setting atom values ...
  432 settings made for charge
set             type 2 charge -1.0
Setting atom values ...
  432 settings made for charge

velocity        all create 3.0 87287 loop geom

pair_style      coul/cut/soft/gapsys 0.0 1.15 2.5
pair_coeff      * * 1.0

neighbor        0.3 bin
neigh_modify    every 20 delay 0 check no

fix             1 all nve

thermo          10
run             50
Generated 0 of 1 mixed pair_coeff terms from geometric mixing rule
Neighbor list info ...
  update: every = 20 steps, delay = 0 steps, check = no
  max neighbors/atom: 2000, page size: 100000
  master list distance cutoff = 2.8
  ghost atom cutoff = 2.8
  binsize = 1.4, bins = 8 8 8
  1 neighbor lists, perpetual/occasional/extra = 1 0 0
  (1) pair coul/cut/soft/gapsys, perpetual
      attributes: half, newton on
      pair build: half/bin/atomonly/newton
      stencil: half/bin/3d
      bin: standard
Per MPI rank memory allocation (min/avg/max) = 2.816 | 2.816 | 2.816 Mbytes
   Step          Temp          E_pair         E_mol          TotEng         Press     
         0   3              0.68363291     0              5.1784246      2.7220431    
        10   2.9945561      0.12320008     0              4.6098353      2.5636658    
        20   2.9778263     -0.35797654     0              4.103593       2.4279928    
        30   2.9593465     -0.44646781     0              3.9874141      2.4051111    
        40   2.9390973     -0.48826471     0              3.9152786      2.3864398    
        50   2.9105877     -0.54324871     0              3.8175798      2.3446428    
Loop time of 0.0214787 on 1 procs for 50 steps with 864 atoms

Performance: 1005647.455 tau/day, 2327.888 timesteps/s, 2.011 Matom-step/s
0.0% CPU use with 1 MPI tasks x 1 OpenMP threads

MPI task timing breakdown:
Section |  min time  |  avg time  |  max time  |%varavg| %total
---------------------------------------------------------------
Pair    | 0.019054   | 0.019054   | 0.019054   |   0.0 | 88.71
Neigh   | 0.0017029  | 0.0017029  | 0.0017029  |   0.0 |  7.93
Comm    | 0.0004284  | 0.0004284  | 0.0004284  |   0.0 |  1.99
Output  | 3.44e-05   | 3.44e-05   | 3.44e-05   |   0.0 |  0.16
Modify  | 0.0001944  | 0.0001944  | 0.0001944  |   0.0 |  0.91
Other   |            | 6.5e-05    |            |       |  0.30

Nlocal:            864 ave         864 max         864 min
Histogram: 1 0 0 0 0 0 0 0 0 0
Nghost:           2333 ave        2333 max        2333 min
Histogram: 1 0 0 0 0 0 0 0 0 0
Neighs:          33118 ave       33118 max       33118 min
Histogram: 1 0 0 0 0 0 0 0 0 0

Total # of neighbors = 33118
Ave neighs/atom = 38.331019
Neighbor list builds = 2
Dangerous builds not checked
Total wall time: 0:00:00
