LAMMPS (30 Mar 2026 - Development - 91d4111-modified)
OMP_NUM_THREADS environment is not set. Defaulting to 1 thread.
  using 1 OpenMP thread(s) per MPI task
# pair_morse speed test (Step 5: restrict/caching backport timing)
# Larger system + longer run than in.morse_test to make Pair time
# dominate over OS/timer noise for a reliable speedup measurement.

units           lj
atom_style      atomic

lattice         fcc 0.8442
Lattice spacing in x,y,z = 1.6795962 1.6795962 1.6795962
region          box block 0 12 0 12 0 12
create_box      2 box
Created orthogonal box = (0 0 0) to (20.155154 20.155154 20.155154)
  1 by 1 by 1 MPI processor grid
create_atoms    1 box basis 1 1 basis 2 2 basis 3 1 basis 4 2
Created 6912 atoms
  using lattice units in orthogonal box = (0 0 0) to (20.155154 20.155154 20.155154)
  create_atoms CPU = 0.001 seconds
mass            1 1.0
mass            2 1.0

velocity        all create 3.0 87287 loop geom

pair_style      morse 2.5
pair_coeff      * * 1.0 2.0 1.0

neighbor        0.3 bin
neigh_modify    every 20 delay 0 check no

fix             1 all nve

thermo          50
run             300
Generated 0 of 1 mixed pair_coeff terms from geometric mixing rule
Neighbor list info ...
  update: every = 20 steps, delay = 0 steps, check = no
  max neighbors/atom: 2000, page size: 100000
  master list distance cutoff = 2.8
  ghost atom cutoff = 2.8
  binsize = 1.4, bins = 15 15 15
  1 neighbor lists, perpetual/occasional/extra = 1 0 0
  (1) pair morse, perpetual
      attributes: half, newton on
      pair build: half/bin/atomonly/newton
      stencil: half/bin/3d
      bin: standard
Per MPI rank memory allocation (min/avg/max) = 3.724 | 3.724 | 3.724 Mbytes
   Step          Temp          E_pair         E_mol          TotEng         Press     
         0   3             -10.220641      0             -5.7212922     -4.18399      
        50   2.4212768     -9.3608445      0             -5.7294549     -3.2972031    
       100   2.6817852     -9.8285667      0             -5.8064709     -3.0266983    
       150   3.0094687     -10.47877       0             -5.9652199     -2.7936579    
       200   3.4784381     -11.453807      0             -6.2369045     -2.4363919    
       250   4.1056478     -12.764731      0             -6.6071505     -1.9952716    
       300   4.8746346     -14.486293      0             -7.1753987     -1.5529894    
Loop time of 0.998958 on 1 procs for 300 steps with 6912 atoms

Performance: 129735.158 tau/day, 300.313 timesteps/s, 2.076 Matom-step/s
97.0% CPU use with 1 MPI tasks x 1 OpenMP threads

MPI task timing breakdown:
Section |  min time  |  avg time  |  max time  |%varavg| %total
---------------------------------------------------------------
Pair    | 0.86998    | 0.86998    | 0.86998    |   0.0 | 87.09
Neigh   | 0.1055     | 0.1055     | 0.1055     |   0.0 | 10.56
Comm    | 0.010197   | 0.010197   | 0.010197   |   0.0 |  1.02
Output  | 0.0001256  | 0.0001256  | 0.0001256  |   0.0 |  0.01
Modify  | 0.010552   | 0.010552   | 0.010552   |   0.0 |  1.06
Other   |            | 0.002598   |            |       |  0.26

Nlocal:           6912 ave        6912 max        6912 min
Histogram: 1 0 0 0 0 0 0 0 0 0
Nghost:           7324 ave        7324 max        7324 min
Histogram: 1 0 0 0 0 0 0 0 0 0
Neighs:         348192 ave      348192 max      348192 min
Histogram: 1 0 0 0 0 0 0 0 0 0

Total # of neighbors = 348192
Ave neighs/atom = 50.375
Neighbor list builds = 15
Dangerous builds not checked
Total wall time: 0:00:01
