LAMMPS (30 Mar 2026 - Development - 91d4111-modified)
OMP_NUM_THREADS environment is not set. Defaulting to 1 thread.
  using 1 OpenMP thread(s) per MPI task
# lj/class2/soft correctness test (Step 4: pair_lj_class2_soft_omp verification)
# Compares standard PairLJClass2Soft vs the new OMP variant for numeric round-off.

units           lj
atom_style      atomic

lattice         fcc 0.8442
Lattice spacing in x,y,z = 1.6795962 1.6795962 1.6795962
region          box block 0 6 0 6 0 6
create_box      1 box
Created orthogonal box = (0 0 0) to (10.077577 10.077577 10.077577)
  1 by 1 by 1 MPI processor grid
create_atoms    1 box
Created 864 atoms
  using lattice units in orthogonal box = (0 0 0) to (10.077577 10.077577 10.077577)
  create_atoms CPU = 0.000 seconds
mass            1 1.0

velocity        all create 3.0 87287 loop geom

pair_style      lj/class2/soft 1.0 0.5 2.5
pair_coeff      1 1 1.0 1.0 0.5

neighbor        0.3 bin
neigh_modify    every 20 delay 0 check no

fix             1 all nve

thermo          10
run             50
Generated 0 of 0 mixed pair_coeff terms from sixthpower/geometric mixing rule
Neighbor list info ...
  update: every = 20 steps, delay = 0 steps, check = no
  max neighbors/atom: 2000, page size: 100000
  master list distance cutoff = 2.8
  ghost atom cutoff = 2.8
  binsize = 1.4, bins = 8 8 8
  1 neighbor lists, perpetual/occasional/extra = 1 0 0
  (1) pair lj/class2/soft, perpetual
      attributes: half, newton on
      pair build: half/bin/atomonly/newton
      stencil: half/bin/3d
      bin: standard
Per MPI rank memory allocation (min/avg/max) = 2.674 | 2.674 | 2.674 Mbytes
   Step          Temp          E_pair         E_mol          TotEng         Press     
         0   3             -2.3127287      0              2.182063      -0.23080682   
        10   2.9940668     -2.3050674      0              2.1808348      0.16473046   
        20   2.6144275     -1.7381584      0              2.1789439      1.4698803    
        30   2.1651819     -1.062893       0              2.1811209      2.3604538    
        40   2.2602143     -1.2051908      0              2.1812068      2.7908804    
        50   2.3931926     -1.4045651      0              2.181069       2.596448     
Loop time of 0.0551173 on 1 procs for 50 steps with 864 atoms

Performance: 391891.475 tau/day, 907.156 timesteps/s, 783.783 katom-step/s
85.0% CPU use with 1 MPI tasks x 1 OpenMP threads

MPI task timing breakdown:
Section |  min time  |  avg time  |  max time  |%varavg| %total
---------------------------------------------------------------
Pair    | 0.052339   | 0.052339   | 0.052339   |   0.0 | 94.96
Neigh   | 0.0016162  | 0.0016162  | 0.0016162  |   0.0 |  2.93
Comm    | 0.0005357  | 0.0005357  | 0.0005357  |   0.0 |  0.97
Output  | 8.4e-05    | 8.4e-05    | 8.4e-05    |   0.0 |  0.15
Modify  | 0.0004408  | 0.0004408  | 0.0004408  |   0.0 |  0.80
Other   |            | 0.0001014  |            |       |  0.18

Nlocal:            864 ave         864 max         864 min
Histogram: 1 0 0 0 0 0 0 0 0 0
Nghost:           2360 ave        2360 max        2360 min
Histogram: 1 0 0 0 0 0 0 0 0 0
Neighs:          33116 ave       33116 max       33116 min
Histogram: 1 0 0 0 0 0 0 0 0 0

Total # of neighbors = 33116
Ave neighs/atom = 38.328704
Neighbor list builds = 2
Dangerous builds not checked
Total wall time: 0:00:00
