LAMMPS (30 Mar 2026 - Development - 91d4111a9-modified)
OMP_NUM_THREADS environment is not set. Defaulting to 1 thread.
  using 1 OpenMP thread(s) per MPI task
Lattice spacing in x,y,z = 1.6795962 1.6795962 1.6795962
Created orthogonal box = (0 0 0) to (20.155154 20.155154 20.155154)
  1 by 1 by 1 MPI processor grid
Created 6912 atoms
  using lattice units in orthogonal box = (0 0 0) to (20.155154 20.155154 20.155154)
  create_atoms CPU = 0.000 seconds
Setting atom values ...
  6912 settings made for charge
Generated 0 of 0 mixed pair_coeff terms from geometric mixing rule
Neighbor list info ...
  update: every = 1 steps, delay = 0 steps, check = yes
  max neighbors/atom: 2000, page size: 100000
  master list distance cutoff = 6.3
  ghost atom cutoff = 6.3
  binsize = 3.15, bins = 7 7 7
  1 neighbor lists, perpetual/occasional/extra = 1 0 0
  (1) pair coul/ctip, perpetual
      attributes: half, newton on
      pair build: half/bin/atomonly/newton
      stencil: half/bin/3d
      bin: standard
Setting up Verlet run ...
  Unit style    : lj
  Current step  : 0
  Time step     : 0.0001
Per MPI rank memory allocation (min/avg/max) = 19.04 | 19.04 | 19.04 Mbytes
   Step          Temp          E_pair         TotEng         Press     
         0   1              1.9574611      3.457244       1.7059251    
        50   1.0000002      1.9574608      3.457244       1.7059252    
       100   1.0000006      1.9574601      3.457244       1.7059256    
       150   1.0000014      1.957459       3.457244       1.7059263    
       200   1.0000025      1.9574573      3.457244       1.7059272    
       250   1.0000039      1.9574553      3.457244       1.7059282    
       300   1.0000056      1.9574527      3.457244       1.7059293    
Loop time of 21.917 on 1 procs for 300 steps with 6912 atoms

Performance: 118.264 tau/day, 13.688 timesteps/s, 94.611 katom-step/s
99.5% CPU use with 1 MPI tasks x 1 OpenMP threads

MPI task timing breakdown:
Section |  min time  |  avg time  |  max time  |%varavg| %total
---------------------------------------------------------------
Pair    | 21.86      | 21.86      | 21.86      |   0.0 | 99.74
Neigh   | 0          | 0          | 0          |   0.0 |  0.00
Comm    | 0.029991   | 0.029991   | 0.029991   |   0.0 |  0.14
Output  | 0.0001275  | 0.0001275  | 0.0001275  |   0.0 |  0.00
Modify  | 0.015085   | 0.015085   | 0.015085   |   0.0 |  0.07
Other   |            | 0.01156    |            |       |  0.05

Nlocal:           6912 ave        6912 max        6912 min
Histogram: 1 0 0 0 0 0 0 0 0 0
Nghost:          22747 ave       22747 max       22747 min
Histogram: 1 0 0 0 0 0 0 0 0 0
Neighs:     3.2279e+06 ave  3.2279e+06 max  3.2279e+06 min
Histogram: 1 0 0 0 0 0 0 0 0 0

Total # of neighbors = 3227904
Ave neighs/atom = 467
Neighbor list builds = 0
Dangerous builds = 0
Total wall time: 0:00:22
