LAMMPS (30 Mar 2026 - Development - 91d4111-modified)
OMP_NUM_THREADS environment is not set. Defaulting to 1 thread.
  using 1 OpenMP thread(s) per MPI task
# born/coul/dsf/cs speed test (Step 5: restrict/caching backport timing)
# Larger system + longer run than in.born_coul_dsf_cs_test to make Pair time
# dominate over OS/timer noise for a reliable speedup measurement.

units           lj
atom_style      charge

lattice         fcc 0.8442
Lattice spacing in x,y,z = 1.6795962 1.6795962 1.6795962
region          box block 0 12 0 12 0 12
create_box      2 box
Created orthogonal box = (0 0 0) to (20.155154 20.155154 20.155154)
  1 by 1 by 1 MPI processor grid
create_atoms    1 box basis 1 1 basis 2 2 basis 3 1 basis 4 2
Created 6912 atoms
  using lattice units in orthogonal box = (0 0 0) to (20.155154 20.155154 20.155154)
  create_atoms CPU = 0.000 seconds
mass            1 1.0
mass            2 1.0
set             type 1 charge 1.0
Setting atom values ...
  3456 settings made for charge
set             type 2 charge -1.0
Setting atom values ...
  3456 settings made for charge

velocity        all create 3.0 87287 loop geom

pair_style      born/coul/dsf/cs 0.2 2.5
pair_coeff      * * 1.0 0.3 1.0 0.0 0.0

neighbor        0.3 bin
neigh_modify    every 20 delay 0 check no

fix             1 all nve

thermo          50
run             300
Generated 0 of 1 mixed pair_coeff terms from geometric mixing rule
Neighbor list info ...
  update: every = 20 steps, delay = 0 steps, check = no
  max neighbors/atom: 2000, page size: 100000
  master list distance cutoff = 2.8
  ghost atom cutoff = 2.8
  binsize = 1.4, bins = 15 15 15
  1 neighbor lists, perpetual/occasional/extra = 1 0 0
  (1) pair born/coul/dsf/cs, perpetual
      attributes: half, newton on
      pair build: half/bin/atomonly/newton
      stencil: half/bin/3d
      bin: standard
Per MPI rank memory allocation (min/avg/max) = 3.893 | 3.893 | 3.893 Mbytes
   Step          Temp          E_pair         E_mol          TotEng         Press     
         0   3              3.2128567      0              7.7122057      7.2180867    
        50   1.921103       4.8324331      0              7.7136707      7.0338946    
       100   2.0781326      4.5987212      0              7.7154691      7.0558451    
       150   2.0553168      4.6338804      0              7.7164096      7.0585594    
       200   2.0492204      4.6439068      0              7.7172927      7.0511998    
       250   2.0322049      4.6704022      0              7.7182686      7.0583262    
       300   2.0288525      4.6767086      0              7.7195471      7.0586475    
Loop time of 1.68293 on 1 procs for 300 steps with 6912 atoms

Performance: 77008.752 tau/day, 178.261 timesteps/s, 1.232 Matom-step/s
99.3% CPU use with 1 MPI tasks x 1 OpenMP threads

MPI task timing breakdown:
Section |  min time  |  avg time  |  max time  |%varavg| %total
---------------------------------------------------------------
Pair    | 1.5749     | 1.5749     | 1.5749     |   0.0 | 93.58
Neigh   | 0.086219   | 0.086219   | 0.086219   |   0.0 |  5.12
Comm    | 0.0093356  | 0.0093356  | 0.0093356  |   0.0 |  0.55
Output  | 0.0001128  | 0.0001128  | 0.0001128  |   0.0 |  0.01
Modify  | 0.01037    | 0.01037    | 0.01037    |   0.0 |  0.62
Other   |            | 0.002034   |            |       |  0.12

Nlocal:           6912 ave        6912 max        6912 min
Histogram: 1 0 0 0 0 0 0 0 0 0
Nghost:           7614 ave        7614 max        7614 min
Histogram: 1 0 0 0 0 0 0 0 0 0
Neighs:         265290 ave      265290 max      265290 min
Histogram: 1 0 0 0 0 0 0 0 0 0

Total # of neighbors = 265290
Ave neighs/atom = 38.381076
Neighbor list builds = 15
Dangerous builds not checked
Total wall time: 0:00:01
