LAMMPS (30 Mar 2026 - Development - 91d4111-modified)
OMP_NUM_THREADS environment is not set. Defaulting to 1 thread.
  using 1 OpenMP thread(s) per MPI task
# pair_morse correctness test (Step 5: restrict/caching backport)
# Verifies bit-identical thermo output before/after backport.

units           lj
atom_style      atomic

lattice         fcc 0.8442
Lattice spacing in x,y,z = 1.6795962 1.6795962 1.6795962
region          box block 0 6 0 6 0 6
create_box      2 box
Created orthogonal box = (0 0 0) to (10.077577 10.077577 10.077577)
  1 by 1 by 1 MPI processor grid
create_atoms    1 box basis 1 1 basis 2 2 basis 3 1 basis 4 2
Created 864 atoms
  using lattice units in orthogonal box = (0 0 0) to (10.077577 10.077577 10.077577)
  create_atoms CPU = 0.000 seconds
mass            1 1.0
mass            2 1.0

velocity        all create 3.0 87287 loop geom

pair_style      morse 2.5
pair_coeff      * * 1.0 2.0 1.0

neighbor        0.3 bin
neigh_modify    every 20 delay 0 check no

fix             1 all nve

thermo          10
run             50
Generated 0 of 1 mixed pair_coeff terms from geometric mixing rule
Neighbor list info ...
  update: every = 20 steps, delay = 0 steps, check = no
  max neighbors/atom: 2000, page size: 100000
  master list distance cutoff = 2.8
  ghost atom cutoff = 2.8
  binsize = 1.4, bins = 8 8 8
  1 neighbor lists, perpetual/occasional/extra = 1 0 0
  (1) pair morse, perpetual
      attributes: half, newton on
      pair build: half/bin/atomonly/newton
      stencil: half/bin/3d
      bin: standard
Per MPI rank memory allocation (min/avg/max) = 2.674 | 2.674 | 2.674 Mbytes
   Step          Temp          E_pair         E_mol          TotEng         Press     
         0   3             -10.220641      0             -5.7258495     -4.1865549    
        10   2.9358016     -10.134028      0             -5.7354223     -4.085412     
        20   2.7518127     -9.8935892      0             -5.7706477     -3.8917642    
        30   2.4665557     -9.4351583      0             -5.7396069     -3.6449506    
        40   2.3313611     -9.2250101      0             -5.732016      -3.4605682    
        50   2.3942551     -9.3270372      0             -5.7398112     -3.308365     
Loop time of 0.0184348 on 1 procs for 50 steps with 864 atoms

Performance: 1171697.008 tau/day, 2712.262 timesteps/s, 2.343 Matom-step/s
84.8% CPU use with 1 MPI tasks x 1 OpenMP threads

MPI task timing breakdown:
Section |  min time  |  avg time  |  max time  |%varavg| %total
---------------------------------------------------------------
Pair    | 0.016143   | 0.016143   | 0.016143   |   0.0 | 87.57
Neigh   | 0.0016273  | 0.0016273  | 0.0016273  |   0.0 |  8.83
Comm    | 0.000399   | 0.000399   | 0.000399   |   0.0 |  2.16
Output  | 3.05e-05   | 3.05e-05   | 3.05e-05   |   0.0 |  0.17
Modify  | 0.0001763  | 0.0001763  | 0.0001763  |   0.0 |  0.96
Other   |            | 5.9e-05    |            |       |  0.32

Nlocal:            864 ave         864 max         864 min
Histogram: 1 0 0 0 0 0 0 0 0 0
Nghost:           2327 ave        2327 max        2327 min
Histogram: 1 0 0 0 0 0 0 0 0 0
Neighs:          33086 ave       33086 max       33086 min
Histogram: 1 0 0 0 0 0 0 0 0 0

Total # of neighbors = 33086
Ave neighs/atom = 38.293981
Neighbor list builds = 2
Dangerous builds not checked
Total wall time: 0:00:00
