LAMMPS (30 Mar 2026 - Development - 91d4111-modified)
OMP_NUM_THREADS environment is not set. Defaulting to 1 thread.
  using 1 OpenMP thread(s) per MPI task
# lj/class2/soft speed test (Step 5: restrict/caching backport timing)
# Larger system + longer run than in.lj_class2_soft_test to make Pair time
# dominate over OS/timer noise for a reliable speedup measurement.

units           lj
atom_style      atomic

lattice         fcc 0.8442
Lattice spacing in x,y,z = 1.6795962 1.6795962 1.6795962
region          box block 0 12 0 12 0 12
create_box      1 box
Created orthogonal box = (0 0 0) to (20.155154 20.155154 20.155154)
  1 by 1 by 1 MPI processor grid
create_atoms    1 box
Created 6912 atoms
  using lattice units in orthogonal box = (0 0 0) to (20.155154 20.155154 20.155154)
  create_atoms CPU = 0.001 seconds
mass            1 1.0

velocity        all create 3.0 87287 loop geom

pair_style      lj/class2/soft 1.0 0.5 2.5
pair_coeff      1 1 1.0 1.0 0.5

neighbor        0.3 bin
neigh_modify    every 20 delay 0 check no

fix             1 all nve

thermo          50
run             300
Generated 0 of 0 mixed pair_coeff terms from sixthpower/geometric mixing rule
Neighbor list info ...
  update: every = 20 steps, delay = 0 steps, check = no
  max neighbors/atom: 2000, page size: 100000
  master list distance cutoff = 2.8
  ghost atom cutoff = 2.8
  binsize = 1.4, bins = 15 15 15
  1 neighbor lists, perpetual/occasional/extra = 1 0 0
  (1) pair lj/class2/soft, perpetual
      attributes: half, newton on
      pair build: half/bin/atomonly/newton
      stencil: half/bin/3d
      bin: standard
Per MPI rank memory allocation (min/avg/max) = 3.724 | 3.724 | 3.724 Mbytes
   Step          Temp          E_pair         E_mol          TotEng         Press     
         0   3             -2.3127287      0              2.1866203     -0.22824198   
        50   2.4096985     -1.428749       0              2.1852759      2.5472454    
       100   2.3350824     -1.3193233      0              2.1827936      2.3593813    
       150   2.3224328     -1.301132       0              2.1820133      2.3229736    
       200   2.3285968     -1.3109317      0              2.1814582      2.3140838    
       250   2.319818      -1.2982518      0              2.1809718      2.3306404    
       300   2.309523      -1.2840646      0              2.1797187      2.3060623    
Loop time of 3.18414 on 1 procs for 300 steps with 6912 atoms

Performance: 40701.768 tau/day, 94.217 timesteps/s, 651.228 katom-step/s
87.8% CPU use with 1 MPI tasks x 1 OpenMP threads

MPI task timing breakdown:
Section |  min time  |  avg time  |  max time  |%varavg| %total
---------------------------------------------------------------
Pair    | 3.0292     | 3.0292     | 3.0292     |   0.0 | 95.13
Neigh   | 0.12154    | 0.12154    | 0.12154    |   0.0 |  3.82
Comm    | 0.014831   | 0.014831   | 0.014831   |   0.0 |  0.47
Output  | 0.0001375  | 0.0001375  | 0.0001375  |   0.0 |  0.00
Modify  | 0.015256   | 0.015256   | 0.015256   |   0.0 |  0.48
Other   |            | 0.003154   |            |       |  0.10

Nlocal:           6912 ave        6912 max        6912 min
Histogram: 1 0 0 0 0 0 0 0 0 0
Nghost:           7503 ave        7503 max        7503 min
Histogram: 1 0 0 0 0 0 0 0 0 0
Neighs:         266040 ave      266040 max      266040 min
Histogram: 1 0 0 0 0 0 0 0 0 0

Total # of neighbors = 266040
Ave neighs/atom = 38.489583
Neighbor list builds = 15
Dangerous builds not checked
Total wall time: 0:00:03
