LAMMPS (30 Mar 2026 - Development - 91d4111-modified)
OMP_NUM_THREADS environment is not set. Defaulting to 1 thread.
  using 1 OpenMP thread(s) per MPI task
# born/coul/dsf/cs correctness test (Step 4: pair_born_coul_dsf_cs_omp verification)
# Same setup as in.born_coul_dsf_test (binary +1/-1 charge mixture, cut_lj ==
# cut_coul == 2.5 so both branches + the self-energy term are exercised);
# /cs only differs by "rsq += EPSILON" (1e-20), negligible at these distances,
# so this mainly checks the CORESHELL subclass + OMP dispatch/threading.

units           lj
atom_style      charge

lattice         fcc 0.8442
Lattice spacing in x,y,z = 1.6795962 1.6795962 1.6795962
region          box block 0 6 0 6 0 6
create_box      2 box
Created orthogonal box = (0 0 0) to (10.077577 10.077577 10.077577)
  1 by 1 by 1 MPI processor grid
create_atoms    1 box basis 1 1 basis 2 2 basis 3 1 basis 4 2
Created 864 atoms
  using lattice units in orthogonal box = (0 0 0) to (10.077577 10.077577 10.077577)
  create_atoms CPU = 0.000 seconds
mass            1 1.0
mass            2 1.0
set             type 1 charge 1.0
Setting atom values ...
  432 settings made for charge
set             type 2 charge -1.0
Setting atom values ...
  432 settings made for charge

velocity        all create 3.0 87287 loop geom

pair_style      born/coul/dsf/cs 0.2 2.5
pair_coeff      * * 1.0 0.3 1.0 0.0 0.0

neighbor        0.3 bin
neigh_modify    every 20 delay 0 check no

fix             1 all nve

thermo          10
run             50
Generated 0 of 1 mixed pair_coeff terms from geometric mixing rule
Neighbor list info ...
  update: every = 20 steps, delay = 0 steps, check = no
  max neighbors/atom: 2000, page size: 100000
  master list distance cutoff = 2.8
  ghost atom cutoff = 2.8
  binsize = 1.4, bins = 8 8 8
  1 neighbor lists, perpetual/occasional/extra = 1 0 0
  (1) pair born/coul/dsf/cs, perpetual
      attributes: half, newton on
      pair build: half/bin/atomonly/newton
      stencil: half/bin/3d
      bin: standard
Per MPI rank memory allocation (min/avg/max) = 2.816 | 2.816 | 2.816 Mbytes
   Step          Temp          E_pair         E_mol          TotEng         Press     
         0   3              3.2128567      0              7.7076484      7.2155218    
        10   2.8828454      3.3890504      0              7.7083136      7.2055558    
        20   2.5636938      3.8700213      0              7.7111111      7.1671736    
        30   2.1776003      4.4470277      0              7.7096476      7.0630836    
        40   1.935353       4.8092952      0              7.7089648      6.9955854    
        50   1.9049243      4.8557317      0              7.709811       7.0245207    
Loop time of 0.0364685 on 1 procs for 50 steps with 864 atoms

Performance: 592291.978 tau/day, 1371.046 timesteps/s, 1.185 Matom-step/s
42.8% CPU use with 1 MPI tasks x 1 OpenMP threads

MPI task timing breakdown:
Section |  min time  |  avg time  |  max time  |%varavg| %total
---------------------------------------------------------------
Pair    | 0.034411   | 0.034411   | 0.034411   |   0.0 | 94.36
Neigh   | 0.0014008  | 0.0014008  | 0.0014008  |   0.0 |  3.84
Comm    | 0.0003804  | 0.0003804  | 0.0003804  |   0.0 |  1.04
Output  | 3.89e-05   | 3.89e-05   | 3.89e-05   |   0.0 |  0.11
Modify  | 0.0001726  | 0.0001726  | 0.0001726  |   0.0 |  0.47
Other   |            | 6.5e-05    |            |       |  0.18

Nlocal:            864 ave         864 max         864 min
Histogram: 1 0 0 0 0 0 0 0 0 0
Nghost:           2334 ave        2334 max        2334 min
Histogram: 1 0 0 0 0 0 0 0 0 0
Neighs:          33147 ave       33147 max       33147 min
Histogram: 1 0 0 0 0 0 0 0 0 0

Total # of neighbors = 33147
Ave neighs/atom = 38.364583
Neighbor list builds = 2
Dangerous builds not checked
Total wall time: 0:00:00
