LAMMPS (30 Mar 2026 - Development - 91d4111-modified)
OMP_NUM_THREADS environment is not set. Defaulting to 1 thread.
  using 1 OpenMP thread(s) per MPI task
# coul/cut/soft/gapsys speed test (Step 5: restrict/caching backport timing)
# Larger system + longer run than in.coul_cut_soft_gapsys_test to make Pair time
# dominate over OS/timer noise for a reliable speedup measurement.

units           lj
atom_style      charge

lattice         fcc 0.8442
Lattice spacing in x,y,z = 1.6795962 1.6795962 1.6795962
region          box block 0 12 0 12 0 12
create_box      2 box
Created orthogonal box = (0 0 0) to (20.155154 20.155154 20.155154)
  1 by 1 by 1 MPI processor grid
create_atoms    1 box basis 1 1 basis 2 2 basis 3 1 basis 4 2
Created 6912 atoms
  using lattice units in orthogonal box = (0 0 0) to (20.155154 20.155154 20.155154)
  create_atoms CPU = 0.000 seconds
mass            1 1.0
mass            2 1.0
set             type 1 charge 1.0
Setting atom values ...
  3456 settings made for charge
set             type 2 charge -1.0
Setting atom values ...
  3456 settings made for charge

velocity        all create 3.0 87287 loop geom

pair_style      coul/cut/soft/gapsys 0.0 1.15 2.5
pair_coeff      * * 1.0

neighbor        0.3 bin
neigh_modify    every 20 delay 0 check no

fix             1 all nve

thermo          50
run             300
Generated 0 of 1 mixed pair_coeff terms from geometric mixing rule
Neighbor list info ...
  update: every = 20 steps, delay = 0 steps, check = no
  max neighbors/atom: 2000, page size: 100000
  master list distance cutoff = 2.8
  ghost atom cutoff = 2.8
  binsize = 1.4, bins = 15 15 15
  1 neighbor lists, perpetual/occasional/extra = 1 0 0
  (1) pair coul/cut/soft/gapsys, perpetual
      attributes: half, newton on
      pair build: half/bin/atomonly/newton
      stencil: half/bin/3d
      bin: standard
Per MPI rank memory allocation (min/avg/max) = 3.893 | 3.893 | 3.893 Mbytes
   Step          Temp          E_pair         E_mol          TotEng         Press     
         0   3              0.68363291     0              5.1829819      2.7246079    
        50   2.9167295     -0.56640883     0              3.8080524      2.3486298    
       100   2.8709893     -0.4933616      0              3.8124993      2.3205799    
       150   2.8775886     -0.49844505     0              3.8173134      2.3253978    
       200   2.8894943     -0.52098128     0              3.812633       2.3371456    
       250   2.8845864     -0.4989585      0              3.827295       2.3351186    
       300   2.8910851     -0.52172454     0              3.8142757      2.336525     
Loop time of 0.861544 on 1 procs for 300 steps with 6912 atoms

Performance: 150427.552 tau/day, 348.212 timesteps/s, 2.407 Matom-step/s
99.7% CPU use with 1 MPI tasks x 1 OpenMP threads

MPI task timing breakdown:
Section |  min time  |  avg time  |  max time  |%varavg| %total
---------------------------------------------------------------
Pair    | 0.74624    | 0.74624    | 0.74624    |   0.0 | 86.62
Neigh   | 0.09581    | 0.09581    | 0.09581    |   0.0 | 11.12
Comm    | 0.0088442  | 0.0088442  | 0.0088442  |   0.0 |  1.03
Output  | 0.000125   | 0.000125   | 0.000125   |   0.0 |  0.01
Modify  | 0.0084444  | 0.0084444  | 0.0084444  |   0.0 |  0.98
Other   |            | 0.002081   |            |       |  0.24

Nlocal:           6912 ave        6912 max        6912 min
Histogram: 1 0 0 0 0 0 0 0 0 0
Nghost:           7463 ave        7463 max        7463 min
Histogram: 1 0 0 0 0 0 0 0 0 0
Neighs:         267673 ave      267673 max      267673 min
Histogram: 1 0 0 0 0 0 0 0 0 0

Total # of neighbors = 267673
Ave neighs/atom = 38.725839
Neighbor list builds = 15
Dangerous builds not checked
Total wall time: 0:00:00
