LAMMPS (30 Mar 2026 - Development - 91d4111-modified)
OMP_NUM_THREADS environment is not set. Defaulting to 1 thread.
  using 1 OpenMP thread(s) per MPI task
# lj/class2/coul/cut/soft speed test (Step 5: restrict/caching backport timing)
# Larger system + longer run than in.lj_class2_coul_cut_soft_test to make Pair time
# dominate over OS/timer noise for a reliable speedup measurement.

units           lj
atom_style      charge

lattice         fcc 0.8442
Lattice spacing in x,y,z = 1.6795962 1.6795962 1.6795962
region          box block 0 12 0 12 0 12
create_box      2 box
Created orthogonal box = (0 0 0) to (20.155154 20.155154 20.155154)
  1 by 1 by 1 MPI processor grid
create_atoms    1 box basis 1 1 basis 2 2 basis 3 1 basis 4 2
Created 6912 atoms
  using lattice units in orthogonal box = (0 0 0) to (20.155154 20.155154 20.155154)
  create_atoms CPU = 0.000 seconds
mass            1 1.0
mass            2 1.0
set             type 1 charge 1.0
Setting atom values ...
  3456 settings made for charge
set             type 2 charge -1.0
Setting atom values ...
  3456 settings made for charge

velocity        all create 3.0 87287 loop geom

pair_style      lj/class2/coul/cut/soft 2.0 0.5 10.0 2.5
pair_coeff      * * 1.0 1.0 0.7

neighbor        0.3 bin
neigh_modify    every 20 delay 0 check no

fix             1 all nve

thermo          50
run             300
Generated 0 of 1 mixed pair_coeff terms from sixthpower/geometric mixing rule
Neighbor list info ...
  update: every = 20 steps, delay = 0 steps, check = no
  max neighbors/atom: 2000, page size: 100000
  master list distance cutoff = 2.8
  ghost atom cutoff = 2.8
  binsize = 1.4, bins = 15 15 15
  1 neighbor lists, perpetual/occasional/extra = 1 0 0
  (1) pair lj/class2/coul/cut/soft, perpetual
      attributes: half, newton on
      pair build: half/bin/atomonly/newton
      stencil: half/bin/3d
      bin: standard
Per MPI rank memory allocation (min/avg/max) = 3.893 | 3.893 | 3.893 Mbytes
   Step          Temp          E_pair         E_mol          TotEng         Press     
         0   3             -1.9004768      0              2.5988721     -0.11880439   
        50   2.3834391     -1.565131       0              2.0095105      3.5053958    
       100   2.38632       -1.6265613      0              1.9524009      3.2795245    
       150   2.3612695     -1.583887       0              1.9575048      3.3115504    
       200   2.340254      -1.5411438      0              1.9687294      3.3688949    
       250   2.3456911     -1.5616723      0              1.9563553      3.3470988    
       300   2.3274798     -1.5208         0              1.9699146      3.3609423    
Loop time of 2.48433 on 1 procs for 300 steps with 6912 atoms

Performance: 52166.962 tau/day, 120.757 timesteps/s, 834.671 katom-step/s
98.1% CPU use with 1 MPI tasks x 1 OpenMP threads

MPI task timing breakdown:
Section |  min time  |  avg time  |  max time  |%varavg| %total
---------------------------------------------------------------
Pair    | 2.3765     | 2.3765     | 2.3765     |   0.0 | 95.66
Neigh   | 0.086919   | 0.086919   | 0.086919   |   0.0 |  3.50
Comm    | 0.0090439  | 0.0090439  | 0.0090439  |   0.0 |  0.36
Output  | 0.0001234  | 0.0001234  | 0.0001234  |   0.0 |  0.00
Modify  | 0.0094113  | 0.0094113  | 0.0094113  |   0.0 |  0.38
Other   |            | 0.002313   |            |       |  0.09

Nlocal:           6912 ave        6912 max        6912 min
Histogram: 1 0 0 0 0 0 0 0 0 0
Nghost:           7477 ave        7477 max        7477 min
Histogram: 1 0 0 0 0 0 0 0 0 0
Neighs:         265570 ave      265570 max      265570 min
Histogram: 1 0 0 0 0 0 0 0 0 0

Total # of neighbors = 265570
Ave neighs/atom = 38.421586
Neighbor list builds = 15
Dangerous builds not checked
Total wall time: 0:00:02
