LAMMPS (30 Mar 2026 - Development - 91d4111-modified)
OMP_NUM_THREADS environment is not set. Defaulting to 1 thread.
  using 1 OpenMP thread(s) per MPI task
# morse/soft correctness test (Step 4: pair_morse_soft_omp verification)
# Compares standard PairMorseSoft vs the new OMP variant for numeric round-off.
# Binary mixture so both branches of compute() (lambda >= shift_range and
# lambda < shift_range) are exercised in the same run.

units           lj
atom_style      atomic

lattice         fcc 0.8442
Lattice spacing in x,y,z = 1.6795962 1.6795962 1.6795962
region          box block 0 6 0 6 0 6
create_box      2 box
Created orthogonal box = (0 0 0) to (10.077577 10.077577 10.077577)
  1 by 1 by 1 MPI processor grid
create_atoms    1 box basis 1 1 basis 2 2 basis 3 1 basis 4 2
Created 864 atoms
  using lattice units in orthogonal box = (0 0 0) to (10.077577 10.077577 10.077577)
  create_atoms CPU = 0.000 seconds
mass            1 1.0
mass            2 1.0

velocity        all create 3.0 87287 loop geom

pair_style      morse/soft 4 0.9 2.5
pair_coeff      1 1 1.0 2.0 1.0 1.0
pair_coeff      2 2 1.0 2.0 1.0 0.5
pair_coeff      1 2 1.0 2.0 1.0 0.7

neighbor        0.3 bin
neigh_modify    every 20 delay 0 check no

fix             1 all nve

thermo          10
run             50
Generated 0 of 1 mixed pair_coeff terms from geometric mixing rule
Neighbor list info ...
  update: every = 20 steps, delay = 0 steps, check = no
  max neighbors/atom: 2000, page size: 100000
  master list distance cutoff = 2.8
  ghost atom cutoff = 2.8
  binsize = 1.4, bins = 8 8 8
  1 neighbor lists, perpetual/occasional/extra = 1 0 0
  (1) pair morse/soft, perpetual
      attributes: half, newton on
      pair build: half/bin/atomonly/newton
      stencil: half/bin/3d
      bin: standard
Per MPI rank memory allocation (min/avg/max) = 2.674 | 2.674 | 2.674 Mbytes
   Step          Temp          E_pair         E_mol          TotEng         Press     
         0   3             -4.6518682      0             -0.15707649    -0.66335549   
        10   2.9800006     -4.6117538      0             -0.14692646    -0.60328262   
        20   2.926555      -4.5386174      0             -0.15386572    -0.51651945   
        30   2.8390197     -4.3889029      0             -0.13530228    -0.41065457   
        40   2.7760798     -4.2912795      0             -0.13197934    -0.34522555   
        50   2.7705591     -4.2842029      0             -0.13317429    -0.27868914   
Loop time of 0.0462485 on 1 procs for 50 steps with 864 atoms

Performance: 467042.174 tau/day, 1081.116 timesteps/s, 934.084 katom-step/s
0.0% CPU use with 1 MPI tasks x 1 OpenMP threads

MPI task timing breakdown:
Section |  min time  |  avg time  |  max time  |%varavg| %total
---------------------------------------------------------------
Pair    | 0.042688   | 0.042688   | 0.042688   |   0.0 | 92.30
Neigh   | 0.0025236  | 0.0025236  | 0.0025236  |   0.0 |  5.46
Comm    | 0.0006008  | 0.0006008  | 0.0006008  |   0.0 |  1.30
Output  | 2.94e-05   | 2.94e-05   | 2.94e-05   |   0.0 |  0.06
Modify  | 0.0003185  | 0.0003185  | 0.0003185  |   0.0 |  0.69
Other   |            | 8.79e-05   |            |       |  0.19

Nlocal:            864 ave         864 max         864 min
Histogram: 1 0 0 0 0 0 0 0 0 0
Nghost:           2326 ave        2326 max        2326 min
Histogram: 1 0 0 0 0 0 0 0 0 0
Neighs:          33089 ave       33089 max       33089 min
Histogram: 1 0 0 0 0 0 0 0 0 0

Total # of neighbors = 33089
Ave neighs/atom = 38.297454
Neighbor list builds = 2
Dangerous builds not checked
Total wall time: 0:00:00
