LAMMPS (30 Mar 2026 - Development - 91d4111-modified)
OMP_NUM_THREADS environment is not set. Defaulting to 1 thread.
  using 1 OpenMP thread(s) per MPI task
# morse/soft speed test (Step 5: restrict/caching backport timing)
# Larger system + longer run than in.morse_soft_test to make Pair time
# dominate over OS/timer noise for a reliable speedup measurement.

units           lj
atom_style      atomic

lattice         fcc 0.8442
Lattice spacing in x,y,z = 1.6795962 1.6795962 1.6795962
region          box block 0 12 0 12 0 12
create_box      2 box
Created orthogonal box = (0 0 0) to (20.155154 20.155154 20.155154)
  1 by 1 by 1 MPI processor grid
create_atoms    1 box basis 1 1 basis 2 2 basis 3 1 basis 4 2
Created 6912 atoms
  using lattice units in orthogonal box = (0 0 0) to (20.155154 20.155154 20.155154)
  create_atoms CPU = 0.001 seconds
mass            1 1.0
mass            2 1.0

velocity        all create 3.0 87287 loop geom

pair_style      morse/soft 4 0.9 2.5
pair_coeff      1 1 1.0 2.0 1.0 1.0
pair_coeff      2 2 1.0 2.0 1.0 0.5
pair_coeff      1 2 1.0 2.0 1.0 0.7

neighbor        0.3 bin
neigh_modify    every 20 delay 0 check no

fix             1 all nve

thermo          50
run             300
Generated 0 of 1 mixed pair_coeff terms from geometric mixing rule
Neighbor list info ...
  update: every = 20 steps, delay = 0 steps, check = no
  max neighbors/atom: 2000, page size: 100000
  master list distance cutoff = 2.8
  ghost atom cutoff = 2.8
  binsize = 1.4, bins = 15 15 15
  1 neighbor lists, perpetual/occasional/extra = 1 0 0
  (1) pair morse/soft, perpetual
      attributes: half, newton on
      pair build: half/bin/atomonly/newton
      stencil: half/bin/3d
      bin: standard
Per MPI rank memory allocation (min/avg/max) = 3.724 | 3.724 | 3.724 Mbytes
   Step          Temp          E_pair         E_mol          TotEng         Press     
         0   3             -4.6518682      0             -0.1525192     -0.66079065   
        50   2.7745328     -4.2887744      0             -0.12757727    -0.26786663   
       100   2.8899862     -4.4900167      0             -0.15566457    -0.10677471   
       150   2.9814565     -4.6747177      0             -0.20317995    -0.075833379  
       200   3.0752722     -4.8729316      0             -0.26069063    -0.056372892  
       250   3.1791558     -5.0956571      0             -0.32761333    -0.017344868  
       300   3.3049249     -5.3731748      0             -0.41650474    -0.00080718503
Loop time of 1.24664 on 1 procs for 300 steps with 6912 atoms

Performance: 103959.468 tau/day, 240.647 timesteps/s, 1.663 Matom-step/s
100.3% CPU use with 1 MPI tasks x 1 OpenMP threads

MPI task timing breakdown:
Section |  min time  |  avg time  |  max time  |%varavg| %total
---------------------------------------------------------------
Pair    | 1.1345     | 1.1345     | 1.1345     |   0.0 | 91.01
Neigh   | 0.091619   | 0.091619   | 0.091619   |   0.0 |  7.35
Comm    | 0.0092995  | 0.0092995  | 0.0092995  |   0.0 |  0.75
Output  | 0.0001257  | 0.0001257  | 0.0001257  |   0.0 |  0.01
Modify  | 0.0089909  | 0.0089909  | 0.0089909  |   0.0 |  0.72
Other   |            | 0.00206    |            |       |  0.17

Nlocal:           6912 ave        6912 max        6912 min
Histogram: 1 0 0 0 0 0 0 0 0 0
Nghost:           7558 ave        7558 max        7558 min
Histogram: 1 0 0 0 0 0 0 0 0 0
Neighs:         288688 ave      288688 max      288688 min
Histogram: 1 0 0 0 0 0 0 0 0 0

Total # of neighbors = 288688
Ave neighs/atom = 41.766204
Neighbor list builds = 15
Dangerous builds not checked
Total wall time: 0:00:01
