LAMMPS (30 Mar 2026 - Development - 91d4111-modified)
OMP_NUM_THREADS environment is not set. Defaulting to 1 thread.
  using 1 OpenMP thread(s) per MPI task
# lj/class2/coul/cut/soft correctness test (Step 4: pair_lj_class2_coul_cut_soft_omp verification)
# PairLJClass2CoulCutSoft : public Pair (FEP package). Combines class2-softcore LJ
# (lj/class2/soft, already ported in pair_lj_class2_soft_omp.cpp) with cut-softcore
# Coulomb (as in lj/cut/coul/cut/soft). lambda=0.7 keeps both softcore alpha terms
# (lj3, lj4) non-zero so the full eval() arithmetic is exercised.

units           lj
atom_style      charge

lattice         fcc 0.8442
Lattice spacing in x,y,z = 1.6795962 1.6795962 1.6795962
region          box block 0 6 0 6 0 6
create_box      2 box
Created orthogonal box = (0 0 0) to (10.077577 10.077577 10.077577)
  1 by 1 by 1 MPI processor grid
create_atoms    1 box basis 1 1 basis 2 2 basis 3 1 basis 4 2
Created 864 atoms
  using lattice units in orthogonal box = (0 0 0) to (10.077577 10.077577 10.077577)
  create_atoms CPU = 0.000 seconds
mass            1 1.0
mass            2 1.0
set             type 1 charge 1.0
Setting atom values ...
  432 settings made for charge
set             type 2 charge -1.0
Setting atom values ...
  432 settings made for charge

velocity        all create 3.0 87287 loop geom

pair_style      lj/class2/coul/cut/soft 2.0 0.5 10.0 2.5
pair_coeff      * * 1.0 1.0 0.7

neighbor        0.3 bin
neigh_modify    every 20 delay 0 check no

fix             1 all nve

thermo          10
run             50
Generated 0 of 1 mixed pair_coeff terms from sixthpower/geometric mixing rule
Neighbor list info ...
  update: every = 20 steps, delay = 0 steps, check = no
  max neighbors/atom: 2000, page size: 100000
  master list distance cutoff = 2.8
  ghost atom cutoff = 2.8
  binsize = 1.4, bins = 8 8 8
  1 neighbor lists, perpetual/occasional/extra = 1 0 0
  (1) pair lj/class2/coul/cut/soft, perpetual
      attributes: half, newton on
      pair build: half/bin/atomonly/newton
      stencil: half/bin/3d
      bin: standard
Per MPI rank memory allocation (min/avg/max) = 2.816 | 2.816 | 2.816 Mbytes
   Step          Temp          E_pair         E_mol          TotEng         Press     
         0   3             -1.9004768      0              2.5943149     -0.12136923   
        10   2.9817014     -2.1342521      0              2.3331234      0.30699235   
        20   2.3674776     -1.4388847      0              2.1082215      2.8851674    
        30   2.3043582     -1.3862311      0              2.0663055      3.7644771    
        40   2.3820301     -1.529943       0              2.0389667      3.5830487    
        50   2.4074361     -1.6012227      0              2.0057519      3.4626769    
Loop time of 0.0526092 on 1 procs for 50 steps with 864 atoms

Performance: 410574.576 tau/day, 950.404 timesteps/s, 821.149 katom-step/s
118.8% CPU use with 1 MPI tasks x 1 OpenMP threads

MPI task timing breakdown:
Section |  min time  |  avg time  |  max time  |%varavg| %total
---------------------------------------------------------------
Pair    | 0.050551   | 0.050551   | 0.050551   |   0.0 | 96.09
Neigh   | 0.0013594  | 0.0013594  | 0.0013594  |   0.0 |  2.58
Comm    | 0.000422   | 0.000422   | 0.000422   |   0.0 |  0.80
Output  | 2.73e-05   | 2.73e-05   | 2.73e-05   |   0.0 |  0.05
Modify  | 0.0001861  | 0.0001861  | 0.0001861  |   0.0 |  0.35
Other   |            | 6.32e-05   |            |       |  0.12

Nlocal:            864 ave         864 max         864 min
Histogram: 1 0 0 0 0 0 0 0 0 0
Nghost:           2370 ave        2370 max        2370 min
Histogram: 1 0 0 0 0 0 0 0 0 0
Neighs:          33099 ave       33099 max       33099 min
Histogram: 1 0 0 0 0 0 0 0 0 0

Total # of neighbors = 33099
Ave neighs/atom = 38.309028
Neighbor list builds = 2
Dangerous builds not checked
Total wall time: 0:00:00
