# LAMMPS data file: Ethylene carbonate + Li+ (200 mol + 1 Li+)
# Generated by build_solvent_data.py

2001 atoms
6 atom types

0.0 35.3439 xlo xhi
0.0 35.3439 ylo yhi
0.0 35.3439 zlo zhi

Masses

  1  12.0110  # C_car
  2  15.9990  # O_est
  3  12.0110  # C_ec
  4  15.9990  # O_car
  5  1.0080  # H_ec
  6  6.9410  # Li

Pair Coeffs  # lj/cut/soft  (eps kcal/mol, sigma Ang, lambda)

  1  0.105000  3.7500  # C_car: Carbonyl C in cyclic carbonate
  2  0.170000  3.0000  # O_est: Ester O in cyclic carbonate
  3  0.066000  3.5000  # C_ec: Ring CH2 alpha to O in EC
  4  0.210000  2.9600  # O_car: Carbonyl O in cyclic carbonate
  5  0.030000  2.5000  # H_ec: H on ring CH2 in EC
  6  0.336700  1.4094  # Li: Li+ ion

Atoms  # full

  1  1  1  0.7200  23.430221  1.532187  8.652760  # C_car
  2  1  2  -0.3680  22.420683  2.369092  9.831678  # O_est
  3  1  3  0.1950  21.658752  1.153621  10.857111  # C_ec
  4  1  3  0.1950  22.197391  34.909438  10.311946  # C_ec
  5  1  2  -0.3680  23.292219  35.143405  8.949583  # O_est
  6  1  4  -0.5000  24.359926  1.587763  9.409438  # O_car
  7  1  5  0.0000  22.625073  1.410909  11.062362  # H_ec
  8  1  5  0.0000  20.692432  0.896332  10.651861  # H_ec
  9  1  5  0.0000  23.163711  35.166727  10.517197  # H_ec
  10  1  5  0.0000  21.231070  34.652150  10.106696  # H_ec
  11  2  1  0.7200  32.943737  2.569472  14.829394  # C_car
  12  2  2  -0.3680  32.441295  4.152796  15.421053  # O_est
  13  2  3  0.1950  30.683798  4.243547  15.309734  # C_ec
  14  2  3  0.1950  30.100047  2.716309  14.649277  # C_ec
  15  2  2  -0.3680  31.496766  1.681674  14.352410  # O_est
  16  2  4  -0.5000  32.850428  2.124826  15.940062  # O_car
  17  2  5  0.0000  31.084797  3.746005  16.105820  # H_ec
  18  2  5  0.0000  30.282799  4.741088  14.513648  # H_ec
  19  2  5  0.0000  30.501045  2.218768  15.445362  # H_ec
  20  2  5  0.0000  29.699048  3.213851  13.853191  # H_ec
  21  3  1  0.7200  0.803061  5.637671  23.516855  # C_car
  22  3  2  -0.3680  1.939100  6.865586  24.074585  # O_est
  23  3  3  0.1950  1.691495  8.317541  23.105080  # C_ec
  24  3  3  0.1950  0.402426  7.986984  21.948162  # C_ec
  25  3  2  -0.3680  35.197270  6.330734  22.202653  # O_est
  26  3  4  -0.5000  35.335309  6.028562  24.309561  # O_car
  27  3  5  0.0000  1.044559  8.144108  23.875467  # H_ec
  28  3  5  0.0000  2.338430  8.490974  22.334694  # H_ec
  29  3  5  0.0000  35.099416  7.813551  22.718549  # H_ec
  30  3  5  0.0000  1.049362  8.160417  21.177776  # H_ec
  31  4  1  0.7200  28.014032  0.266636  27.104116  # C_car
  32  4  2  -0.3680  27.223448  0.795442  28.588961  # O_est
  33  4  3  0.1950  28.346890  0.542400  29.924353  # C_ec
  34  4  3  0.1950  29.831799  35.201131  29.264825  # C_ec
  35  4  2  -0.3680  29.626081  35.030699  27.521823  # O_est
  36  4  4  -0.5000  28.453046  1.371942  26.944224  # O_car
  37  4  5  0.0000  28.474353  1.374484  29.346866  # H_ec
  38  4  5  0.0000  28.219427  35.054243  30.501839  # H_ec
  39  4  5  0.0000  29.959262  0.689289  28.687339  # H_ec
  40  4  5  0.0000  29.704336  34.369048  29.842312  # H_ec
  41  5  1  0.7200  35.041518  12.164108  2.432611  # C_car
  42  5  2  -0.3680  33.362864  12.379385  1.937437  # O_est
  43  5  3  0.1950  32.332080  11.927432  3.294878  # C_ec
  44  5  3  0.1950  33.373675  11.432832  4.628997  # C_ec
  45  5  2  -0.3680  35.048200  11.579106  4.096087  # O_est
  46  5  4  -0.5000  35.069287  13.295877  2.830514  # O_car
  47  5  5  0.0000  32.755958  12.856006  3.308192  # H_ec
  48  5  5  0.0000  31.908202  10.998858  3.281564  # H_ec
  49  5  5  0.0000  33.797554  12.361407  4.642312  # H_ec
  50  5  5  0.0000  32.949797  10.504258  4.615683  # H_ec
  51  6  1  0.7200  27.107734  25.586570  19.392203  # C_car
  52  6  2  -0.3680  28.497682  24.624718  19.894507  # O_est
  53  6  3  0.1950  29.928259  25.275437  19.094859  # C_ec
  54  6  3  0.1950  29.422457  26.639457  18.098345  # C_ec
  55  6  2  -0.3680  27.679276  26.831747  18.282114  # O_est
  56  6  4  -0.5000  27.287207  26.329177  20.317582  # O_car
  57  6  5  0.0000  29.588252  25.757865  19.927780  # H_ec
  58  6  5  0.0000  30.268266  24.793009  18.261937  # H_ec
  59  6  5  0.0000  29.082449  27.121885  18.931267  # H_ec
  60  6  5  0.0000  29.762464  26.157029  17.265424  # H_ec
  61  7  1  0.7200  29.082360  20.378979  30.459794  # C_car
  62  7  2  -0.3680  30.426731  21.219494  31.231562  # O_est
  63  7  3  0.1950  30.233921  22.946432  30.931674  # C_ec
  64  7  3  0.1950  28.770387  23.173224  29.974566  # C_ec
  65  7  2  -0.3680  28.058683  21.586451  29.682927  # O_est
  66  7  4  -0.5000  28.439251  20.482193  31.467642  # O_car
  67  7  5  0.0000  29.679597  22.529003  31.680391  # H_ec
  68  7  5  0.0000  30.788246  23.363861  30.182957  # H_ec
  69  7  5  0.0000  28.216063  22.755795  30.723283  # H_ec
  70  7  5  0.0000  29.324712  23.590653  29.225848  # H_ec
  71  8  1  0.7200  8.856447  11.101930  1.901562  # C_car
  72  8  2  -0.3680  9.383593  10.484831  3.467042  # O_est
  73  8  3  0.1950  8.074419  9.512947  4.138556  # C_ec
  74  8  3  0.1950  6.738160  9.529390  2.988094  # C_ec
  75  8  2  -0.3680  7.221479  10.511435  1.605555  # O_est
  76  8  4  -0.5000  9.305680  10.126640  1.365839  # O_car
  77  8  5  0.0000  8.674810  9.080881  3.435028  # H_ec
  78  8  5  0.0000  7.474029  9.945013  4.842083  # H_ec
  79  8  5  0.0000  7.338550  9.097324  2.284566  # H_ec
  80  8  5  0.0000  6.137770  9.961456  3.691621  # H_ec
  81  9  1  0.7200  23.339063  14.064025  13.434322  # C_car
  82  9  2  -0.3680  21.720529  14.149028  12.739665  # O_est
  83  9  3  0.1950  21.134400  12.500455  12.520382  # C_ec
  84  9  3  0.1950  22.390685  11.396580  13.079514  # C_ec
  85  9  2  -0.3680  23.753242  12.362919  13.644360  # O_est
  86  9  4  -0.5000  22.866798  14.085224  14.537280  # O_car
  87  9  5  0.0000  21.074630  12.905986  13.455300  # H_ec
  88  9  5  0.0000  21.194170  12.094925  11.585463  # H_ec
  89  9  5  0.0000  22.330915  11.802110  14.014432  # H_ec
  90  9  5  0.0000  22.450455  10.991049  12.144595  # H_ec
  91  10  1  0.7200  22.216734  21.174386  4.763527  # C_car
  92  10  2  -0.3680  23.930947  21.540593  4.955331  # O_est
  93  10  3  0.1950  24.226112  21.890891  6.658150  # C_ec
  94  10  3  0.1950  22.694321  21.741180  7.518746  # C_ec
  95  10  2  -0.3680  21.452457  21.298355  6.347805  # O_est
  96  10  4  -0.5000  22.442511  20.012877  4.963333  # O_car
  97  10  5  0.0000  24.164437  20.911207  6.377944  # H_ec
  98  10  5  0.0000  24.287788  22.870575  6.938355  # H_ec
  99  10  5  0.0000  22.632646  20.761496  7.238540  # H_ec
  100  10  5  0.0000  22.755997  22.720864  7.798952  # H_ec
  101  11  1  0.7200  34.419797  21.673195  18.661745  # C_car
  102  11  2  -0.3680  34.261839  23.429345  18.641493  # O_est
  103  11  3  0.1950  35.087566  24.067151  20.063043  # C_ec
  104  11  3  0.1950  0.411925  22.705187  20.961860  # C_ec
  105  11  2  -0.3680  35.343146  21.225641  20.095810  # O_est
  106  11  4  -0.5000  0.094134  21.757527  18.032436  # O_car
  107  11  5  0.0000  0.314237  23.814061  19.255291  # H_ec
  108  11  5  0.0000  34.516968  24.320242  20.870796  # H_ec
  109  11  5  0.0000  0.982522  22.452096  20.154108  # H_ec
  110  11  5  0.0000  35.185253  22.958277  21.769613  # H_ec
  111  12  1  0.7200  8.792235  2.227975  11.903616  # C_car
  112  12  2  -0.3680  7.055579  2.106192  11.623228  # O_est
  113  12  3  0.1950  6.756000  0.641631  10.687955  # C_ec
  114  12  3  0.1950  8.307506  35.202191  10.390313  # C_ec
  115  12  2  -0.3680  9.565969  0.838680  11.141633  # O_est
  116  12  4  -0.5000  8.671820  1.602967  12.920899  # O_car
  117  12  5  0.0000  6.898952  0.542558  11.693862  # H_ec
  118  12  5  0.0000  6.613049  0.740703  9.682047  # H_ec
  119  12  5  0.0000  8.450458  35.103118  11.396221  # H_ec
  120  12  5  0.0000  8.164555  35.301263  9.384406  # H_ec
  121  13  1  0.7200  31.287376  12.169627  22.138963  # C_car
  122  13  2  -0.3680  30.687650  10.544028  21.811577  # O_est
  123  13  3  0.1950  30.484026  9.717100  23.355647  # C_ec
  124  13  3  0.1950  30.957905  10.831629  24.637321  # C_ec
  125  13  2  -0.3680  31.454404  12.347374  23.885369  # O_est
  126  13  4  -0.5000  30.158988  12.572442  22.205885  # O_car
  127  13  5  0.0000  29.751505  10.365080  23.063010  # H_ec
  128  13  5  0.0000  31.216546  9.069121  23.648284  # H_ec
  129  13  5  0.0000  30.225385  11.479609  24.344683  # H_ec
  130  13  5  0.0000  31.690426  10.183650  24.929958  # H_ec
  131  14  1  0.7200  10.073680  8.862426  18.528641  # C_car
  132  14  2  -0.3680  10.739776  8.144280  19.994931  # O_est
  133  14  3  0.1950  9.501701  8.217316  21.248429  # C_ec
  134  14  3  0.1950  8.070432  8.980600  20.556844  # C_ec
  135  14  2  -0.3680  8.423935  9.379300  18.875923  # O_est
  136  14  4  -0.5000  9.664939  7.786965  18.187592  # O_car
  137  14  5  0.0000  9.435810  7.468229  20.558047  # H_ec
  138  14  5  0.0000  9.567592  8.966402  21.938812  # H_ec
  139  14  5  0.0000  8.004541  8.231514  19.866462  # H_ec
  140  14  5  0.0000  8.136323  9.729687  21.247227  # H_ec
  141  15  1  0.7200  14.087803  8.895270  0.883192  # C_car
  142  15  2  -0.3680  13.720017  7.211235  1.254923  # O_est
  143  15  3  0.1950  13.899994  6.274044  35.116045  # C_ec
  144  15  3  0.1950  14.379012  7.378863  33.827892  # C_ec
  145  15  2  -0.3680  14.495084  8.998870  34.514572  # O_est
  146  15  4  -0.5000  15.242451  8.701122  1.146048  # O_car
  147  15  5  0.0000  14.746832  6.511256  0.290479  # H_ec
  148  15  5  0.0000  13.053155  6.036833  34.597686  # H_ec
  149  15  5  0.0000  15.225850  7.616075  34.346251  # H_ec
  150  15  5  0.0000  13.532174  7.141652  33.309532  # H_ec
  151  16  1  0.7200  4.108951  22.677030  26.600617  # C_car
  152  16  2  -0.3680  5.229769  21.705752  27.554455  # O_est
  153  16  3  0.1950  4.478938  21.384902  29.117379  # C_ec
  154  16  3  0.1950  2.894080  22.157884  29.129481  # C_ec
  155  16  2  -0.3680  2.665415  22.956464  27.574037  # O_est
  156  16  4  -0.5000  3.617142  21.675585  26.158767  # O_car
  157  16  5  0.0000  4.192020  20.809038  28.324814  # H_ec
  158  16  5  0.0000  4.765856  21.960765  29.909944  # H_ec
  159  16  5  0.0000  2.607162  21.582020  28.336917  # H_ec
  160  16  5  0.0000  3.180998  22.733748  29.922046  # H_ec
  161  17  1  0.7200  34.124501  17.668936  34.205833  # C_car
  162  17  2  -0.3680  33.916892  19.331309  34.756138  # O_est
  163  17  3  0.1950  0.148022  20.122587  34.706095  # C_ec
  164  17  3  0.1950  1.329068  18.949249  34.124861  # C_ec
  165  17  2  -0.3680  0.483940  17.432810  33.815682  # O_est
  166  17  4  -0.5000  33.914047  18.016438  33.076695  # O_car
  167  17  5  0.0000  34.975081  20.036303  33.830022  # H_ec
  168  17  5  0.0000  0.664888  20.208870  0.238243  # H_ec
  169  17  5  0.0000  0.812202  18.862966  33.248788  # H_ec
  170  17  5  0.0000  1.845934  19.035533  35.000935  # H_ec
  171  18  1  0.7200  16.746210  32.518655  30.387732  # C_car
  172  18  2  -0.3680  15.125182  32.526721  31.081725  # O_est
  173  18  3  0.1950  14.763394  34.172249  31.602083  # C_ec
  174  18  3  0.1950  16.160826  35.181175  31.229688  # C_ec
  175  18  2  -0.3680  17.386273  34.159197  30.479178  # O_est
  176  18  4  -0.5000  16.284514  32.759056  29.306509  # O_car
  177  18  5  0.0000  14.657581  33.952898  30.610725  # H_ec
  178  18  5  0.0000  14.869208  34.391599  32.593440  # H_ec
  179  18  5  0.0000  16.055012  34.961824  30.238331  # H_ec
  180  18  5  0.0000  16.266639  0.056599  32.221045  # H_ec
  181  19  1  0.7200  31.839002  29.330593  10.655030  # C_car
  182  19  2  -0.3680  31.754071  30.532867  11.942177  # O_est
  183  19  3  0.1950  32.362582  32.059456  11.302910  # C_ec
  184  19  3  0.1950  32.823594  31.800666  9.620673  # C_ec
  185  19  2  -0.3680  32.500004  30.114136  9.220262  # O_est
  186  19  4  -0.5000  30.729783  29.626389  10.305548  # O_car
  187  19  5  0.0000  31.400962  31.799854  11.079317  # H_ec
  188  19  5  0.0000  33.324202  32.319057  11.526503  # H_ec
  189  19  5  0.0000  31.861974  31.541065  9.397081  # H_ec
  190  19  5  0.0000  33.785214  32.060267  9.844266  # H_ec
  191  20  1  0.7200  35.037314  33.677932  30.312844  # C_car
  192  20  2  -0.3680  34.657292  32.391896  31.457885  # O_est
  193  20  3  0.1950  0.833573  31.722350  32.049581  # C_ec
  194  20  3  0.1950  2.153134  32.594584  31.270228  # C_ec
  195  20  2  -0.3680  1.448461  33.803200  30.196866  # O_est
  196  20  4  -0.5000  35.039633  34.475523  31.209417  # O_car
  197  20  5  0.0000  0.503628  32.593877  32.466327  # H_ec
  198  20  5  0.0000  1.163519  30.850823  31.632835  # H_ec
  199  20  5  0.0000  1.823189  33.466111  31.686974  # H_ec
  200  20  5  0.0000  2.483079  31.723057  30.853482  # H_ec
  201  21  1  0.7200  31.074335  32.154127  3.748146  # C_car
  202  21  2  -0.3680  29.714876  33.276805  3.718325  # O_est
  203  21  3  0.1950  30.176061  34.664967  2.733571  # C_ec
  204  21  3  0.1950  31.820547  34.400220  2.154782  # C_ec
  205  21  2  -0.3680  32.375711  32.848435  2.781823  # O_est
  206  21  4  -0.5000  30.642513  31.605310  2.772271  # O_car
  207  21  5  0.0000  29.869803  33.819667  2.250070  # H_ec
  208  21  5  0.0000  30.482319  0.166342  3.217073  # H_ec
  209  21  5  0.0000  31.514289  33.554919  1.671280  # H_ec
  210  21  5  0.0000  32.126805  35.245520  2.638283  # H_ec
  211  22  1  0.7200  14.265563  7.378209  17.733206  # C_car
  212  22  2  -0.3680  15.553144  8.511009  18.143478  # O_est
  213  22  3  0.1950  16.014602  8.226977  19.821514  # C_ec
  214  22  3  0.1950  15.012218  6.918636  20.448326  # C_ec
  215  22  2  -0.3680  13.931252  6.394069  19.157681  # O_est
  216  22  4  -0.5000  15.084195  6.578293  17.372686  # O_car
  217  22  5  0.0000  16.391824  7.597849  19.111583  # H_ec
  218  22  5  0.0000  15.637381  8.856105  20.531445  # H_ec
  219  22  5  0.0000  15.389440  6.289508  19.738395  # H_ec
  220  22  5  0.0000  14.634997  7.547765  21.158257  # H_ec
  221  23  1  0.7200  12.788619  19.605849  7.764598  # C_car
  222  23  2  -0.3680  11.772639  19.751981  9.198423  # O_est
  223  23  3  0.1950  11.000758  21.336959  9.160088  # C_ec
  224  23  3  0.1950  11.539690  22.170397  7.702570  # C_ec
  225  23  2  -0.3680  12.644649  21.100512  6.840110  # O_est
  226  23  4  -0.5000  11.864169  19.140946  7.156933  # O_car
  227  23  5  0.0000  10.594907  20.596393  8.586549  # H_ec
  228  23  5  0.0000  11.406610  22.077525  9.733626  # H_ec
  229  23  5  0.0000  11.133839  21.429831  7.129032  # H_ec
  230  23  5  0.0000  11.945541  22.910963  8.276109  # H_ec
  231  24  1  0.7200  9.379129  31.576392  31.024882  # C_car
  232  24  2  -0.3680  8.797189  33.233389  30.866361  # O_est
  233  24  3  0.1950  7.240289  33.187401  30.039699  # C_ec
  234  24  3  0.1950  6.860012  31.501982  29.687315  # C_ec
  235  24  2  -0.3680  8.181888  30.506323  30.296192  # O_est
  236  24  4  -0.5000  8.820337  31.481331  32.082575  # O_car
  237  24  5  0.0000  7.254994  32.975329  31.038152  # H_ec
  238  24  5  0.0000  7.225583  33.399474  29.041245  # H_ec
  239  24  5  0.0000  6.874717  31.289909  30.685768  # H_ec
  240  24  5  0.0000  6.845307  31.714054  28.688861  # H_ec
  241  25  1  0.7200  7.358840  6.159644  32.996756  # C_car
  242  25  2  -0.3680  8.812595  5.297312  32.494357  # O_est
  243  25  3  0.1950  8.551847  3.576928  32.780216  # C_ec
  244  25  3  0.1950  6.936943  3.376005  33.459286  # C_ec
  245  25  2  -0.3680  6.199624  4.972212  33.593114  # O_est
  246  25  4  -0.5000  6.908086  6.044170  31.890643  # O_car
  247  25  5  0.0000  8.146495  3.985693  31.937186  # H_ec
  248  25  5  0.0000  8.957200  3.168163  33.623246  # H_ec
  249  25  5  0.0000  6.531590  3.784770  32.616255  # H_ec
  250  25  5  0.0000  7.342295  2.967240  34.302316  # H_ec
  251  26  1  0.7200  28.746960  5.787178  4.574225  # C_car
  252  26  2  -0.3680  28.984968  5.410376  2.868120  # O_est
  253  26  3  0.1950  28.608203  6.857020  1.932869  # C_ec
  254  26  3  0.1950  28.137340  8.127897  3.060958  # C_ec
  255  26  2  -0.3680  28.223097  7.466698  4.693406  # O_est
  256  26  4  -0.5000  29.891487  6.138344  4.656334  # O_car
  257  26  5  0.0000  29.526009  6.803249  2.376537  # H_ec
  258  26  5  0.0000  27.690397  6.910791  1.489202  # H_ec
  259  26  5  0.0000  29.055146  8.074126  3.504625  # H_ec
  260  26  5  0.0000  27.219534  8.181668  2.617290  # H_ec
  261  27  1  0.7200  26.973149  22.906860  34.738935  # C_car
  262  27  2  -0.3680  25.811413  23.146921  33.434265  # O_est
  263  27  3  0.1950  24.590238  24.288612  33.995245  # C_ec
  264  27  3  0.1950  24.997247  24.754154  0.302694  # C_ec
  265  27  2  -0.3680  26.469967  23.900185  0.762320  # O_est
  266  27  4  -0.5000  27.632223  23.817821  34.319684  # O_car
  267  27  5  0.0000  25.480633  24.666746  33.669192  # H_ec
  268  27  5  0.0000  23.699843  23.910477  34.321298  # H_ec
  269  27  5  0.0000  25.887642  25.132288  35.320566  # H_ec
  270  27  5  0.0000  24.106851  24.376020  0.628747  # H_ec
  271  28  1  0.7200  7.745093  32.017642  14.826747  # C_car
  272  28  2  -0.3680  8.492522  31.293748  16.250387  # O_est
  273  28  3  0.1950  9.705146  32.419039  16.860869  # C_ec
  274  28  3  0.1950  9.707160  33.838401  15.814527  # C_ec
  275  28  2  -0.3680  8.495781  33.590324  14.557370  # O_est
  276  28  4  -0.5000  6.915698  32.533008  15.524244  # O_car
  277  28  5  0.0000  8.728662  32.596539  17.099768  # H_ec
  278  28  5  0.0000  10.681630  32.241539  16.621970  # H_ec
  279  28  5  0.0000  8.730676  34.015901  16.053426  # H_ec
  280  28  5  0.0000  10.683644  33.660900  15.575628  # H_ec
  281  29  1  0.7200  34.039464  29.622266  35.028169  # C_car
  282  29  2  -0.3680  0.258304  30.261036  0.193323  # O_est
  283  29  3  0.1950  1.429055  29.915101  34.264812  # C_ec
  284  29  3  0.1950  0.589853  29.062531  32.969324  # C_ec
  285  29  2  -0.3680  34.244373  28.881549  33.441105  # O_est
  286  29  4  -0.5000  33.781107  30.671025  34.505334  # O_car
  287  29  5  0.0000  0.811073  30.717520  34.137055  # H_ec
  288  29  5  0.0000  2.047037  29.112682  34.392569  # H_ec
  289  29  5  0.0000  35.315797  29.864950  32.841567  # H_ec
  290  29  5  0.0000  1.207835  28.260112  33.097080  # H_ec
  291  30  1  0.7200  18.488558  8.085462  13.710620  # C_car
  292  30  2  -0.3680  17.158353  7.569444  12.674423  # O_est
  293  30  3  0.1950  15.836593  7.033007  13.711058  # C_ec
  294  30  3  0.1950  16.349906  7.217489  15.387930  # C_ec
  295  30  2  -0.3680  17.988910  7.867942  15.387660  # O_est
  296  30  4  -0.5000  18.045938  9.200775  13.723410  # O_car
  297  30  5  0.0000  15.949682  8.037129  13.565971  # H_ec
  298  30  5  0.0000  15.723505  6.028885  13.856145  # H_ec
  299  30  5  0.0000  16.462994  8.221611  15.242843  # H_ec
  300  30  5  0.0000  16.236817  6.213367  15.533017  # H_ec
  301  31  1  0.7200  20.252911  24.985204  4.162280  # C_car
  302  31  2  -0.3680  18.997744  24.108646  5.037281  # O_est
  303  31  3  0.1950  18.634347  25.004767  6.511843  # C_ec
  304  31  3  0.1950  19.664921  26.435158  6.548172  # C_ec
  305  31  2  -0.3680  20.665249  26.423068  5.096062  # O_est
  306  31  4  -0.5000  19.410241  25.607210  3.576604  # O_car
  307  31  5  0.0000  18.212659  25.330699  5.641184  # H_ec
  308  31  5  0.0000  19.056034  24.678834  7.382502  # H_ec
  309  31  5  0.0000  19.243233  26.761091  5.677513  # H_ec
  310  31  5  0.0000  20.086609  26.109226  7.418831  # H_ec
  311  32  1  0.7200  6.506816  35.115164  2.683402  # C_car
  312  32  2  -0.3680  6.391273  34.044669  4.079867  # O_est
  313  32  3  0.1950  5.132869  32.853984  3.751068  # C_ec
  314  32  3  0.1950  4.470675  33.188594  2.151393  # C_ec
  315  32  2  -0.3680  5.319820  34.586080  1.491539  # O_est
  316  32  4  -0.5000  7.324361  34.386656  2.192589  # O_car
  317  32  5  0.0000  6.053390  32.699496  3.337698  # H_ec
  318  32  5  0.0000  4.212348  33.008472  4.164437  # H_ec
  319  32  5  0.0000  5.391196  33.034106  1.738023  # H_ec
  320  32  5  0.0000  3.550154  33.343082  2.564763  # H_ec
  321  33  1  0.7200  13.512935  20.274069  19.127660  # C_car
  322  33  2  -0.3680  14.361262  21.812583  19.278457  # O_est
  323  33  3  0.1950  15.839478  21.715798  18.321935  # C_ec
  324  33  3  0.1950  15.904739  20.117468  17.579975  # C_ec
  325  33  2  -0.3680  14.466856  19.226430  18.077941  # O_est
  326  33  4  -0.5000  12.921697  20.693794  18.171486  # O_car
  327  33  5  0.0000  14.966270  21.908694  17.829595  # H_ec
  328  33  5  0.0000  16.712686  21.522903  18.814275  # H_ec
  329  33  5  0.0000  15.031531  20.310363  17.087635  # H_ec
  330  33  5  0.0000  16.777947  19.924573  18.072315  # H_ec
  331  34  1  0.7200  9.036107  14.558624  24.991205  # C_car
  332  34  2  -0.3680  9.135589  15.265373  23.378744  # O_est
  333  34  3  0.1950  8.268399  14.207701  22.265760  # C_ec
  334  34  3  0.1950  7.632964  12.847274  23.190360  # C_ec
  335  34  2  -0.3680  8.107434  13.064156  24.874778  # O_est
  336  34  4  -0.5000  8.024870  15.170965  25.197209  # O_car
  337  34  5  0.0000  7.718401  14.851853  22.835558  # H_ec
  338  34  5  0.0000  8.818397  13.563548  21.695962  # H_ec
  339  34  5  0.0000  7.082966  13.491426  23.760157  # H_ec
  340  34  5  0.0000  8.182962  12.203121  22.620562  # H_ec
  341  35  1  0.7200  1.075669  16.379803  35.246870  # C_car
  342  35  2  -0.3680  2.241060  17.521936  0.571391  # O_est
  343  35  3  0.1950  3.852686  16.833894  0.374703  # C_ec
  344  35  3  0.1950  3.683334  15.266529  34.928623  # C_ec
  345  35  2  -0.3680  1.967043  14.985885  34.637060  # O_est
  346  35  4  -0.5000  1.171140  16.909961  34.174575  # O_car
  347  35  5  0.0000  3.427397  17.287826  34.909199  # H_ec
  348  35  5  0.0000  4.277975  16.379962  1.184132  # H_ec
  349  35  5  0.0000  3.258045  15.720461  34.119194  # H_ec
  350  35  5  0.0000  4.108623  14.812597  0.394126  # H_ec
  351  36  1  0.7200  3.468582  18.856313  10.916433  # C_car
  352  36  2  -0.3680  3.808561  20.575730  10.722928  # O_est
  353  36  3  0.1950  4.113314  20.881900  9.013305  # C_ec
  354  36  3  0.1950  3.961684  19.351707  8.150206  # C_ec
  355  36  2  -0.3680  3.563217  18.099826  9.326403  # O_est
  356  36  4  -0.5000  2.299799  19.068239  10.746041  # O_car
  357  36  5  0.0000  3.141637  20.806818  9.317124  # H_ec
  358  36  5  0.0000  5.084991  20.956982  8.709487  # H_ec
  359  36  5  0.0000  2.990006  19.276625  8.454025  # H_ec
  360  36  5  0.0000  4.933361  19.426789  7.846387  # H_ec
  361  37  1  0.7200  14.157473  9.032204  1.140600  # C_car
  362  37  2  -0.3680  13.872757  10.685390  0.597153  # O_est
  363  37  3  0.1950  15.105541  11.085928  34.745573  # C_ec
  364  37  3  0.1950  16.152160  9.680288  34.550156  # C_ec
  365  37  2  -0.3680  15.566222  8.411016  0.280962  # O_est
  366  37  4  -0.5000  13.443811  8.622227  0.267327  # O_car
  367  37  5  0.0000  14.305123  10.532942  34.436322  # H_ec
  368  37  5  0.0000  15.905960  11.638915  35.054823  # H_ec
  369  37  5  0.0000  15.351741  9.127301  34.240906  # H_ec
  370  37  5  0.0000  16.952579  10.233275  34.859406  # H_ec
  371  38  1  0.7200  27.669001  19.422599  15.399714  # C_car
  372  38  2  -0.3680  26.391616  18.646768  16.335553  # O_est
  373  38  3  0.1950  24.846674  19.048073  15.586198  # C_ec
  374  38  3  0.1950  25.169233  20.071924  14.187231  # C_ec
  375  38  2  -0.3680  26.913527  20.303395  14.071978  # O_est
  376  38  4  -0.5000  27.752518  18.447487  14.705321  # O_car
  377  38  5  0.0000  25.398946  18.299547  15.165716  # H_ec
  378  38  5  0.0000  24.294402  19.796598  16.006679  # H_ec
  379  38  5  0.0000  25.721505  19.323399  13.766750  # H_ec
  380  38  5  0.0000  24.616961  20.820450  14.607713  # H_ec
  381  39  1  0.7200  7.666956  3.795474  28.518737  # C_car
  382  39  2  -0.3680  9.353545  3.551068  28.971625  # O_est
  383  39  3  0.1950  10.301909  3.420069  27.490791  # C_ec
  384  39  3  0.1950  9.201441  3.583514  26.122697  # C_ec
  385  39  2  -0.3680  7.572951  3.815526  26.758003  # O_est
  386  39  4  -0.5000  7.837894  4.983228  28.523138  # O_car
  387  39  5  0.0000  10.044553  4.355102  27.809510  # H_ec
  388  39  5  0.0000  10.559265  2.485037  27.172071  # H_ec
  389  39  5  0.0000  8.944085  4.518546  26.441416  # H_ec
  390  39  5  0.0000  9.458797  2.648481  25.803978  # H_ec
  391  40  1  0.7200  34.927525  25.374655  11.358567  # C_car
  392  40  2  -0.3680  0.750914  26.089714  10.247040  # O_est
  393  40  3  0.1950  2.091158  26.726507  11.199754  # C_ec
  394  40  3  0.1950  1.752161  26.405007  12.900090  # C_ec
  395  40  2  -0.3680  0.202404  25.569517  12.998241  # O_est
  396  40  4  -0.5000  0.147258  24.318872  11.271316  # O_car
  397  40  5  0.0000  2.078389  25.723993  11.007653  # H_ec
  398  40  5  0.0000  2.103928  27.729021  11.391855  # H_ec
  399  40  5  0.0000  1.739391  25.402493  12.707989  # H_ec
  400  40  5  0.0000  1.764930  27.407521  13.092191  # H_ec
  401  41  1  0.7200  35.087261  7.852883  11.627790  # C_car
  402  41  2  -0.3680  1.401836  8.117702  11.090510  # O_est
  403  41  3  0.1950  2.278915  6.597385  11.260183  # C_ec
  404  41  3  0.1950  1.162479  5.392957  11.902327  # C_ec
  405  41  2  -0.3680  34.939330  6.168898  12.129520  # O_est
  406  41  4  -0.5000  34.774035  7.547474  10.510375  # O_car
  407  41  5  0.0000  1.682253  6.713179  10.440009  # H_ec
  408  41  5  0.0000  2.875577  6.481590  12.080358  # H_ec
  409  41  5  0.0000  0.565817  5.508751  11.082152  # H_ec
  410  41  5  0.0000  1.759141  5.277163  12.722501  # H_ec
  411  42  1  0.7200  22.563836  14.629249  0.742706  # C_car
  412  42  2  -0.3680  23.911119  13.711097  0.070958  # O_est
  413  42  3  0.1950  23.546649  13.366607  33.724347  # C_ec
  414  42  3  0.1950  21.974111  14.071853  33.351287  # C_ec
  415  42  2  -0.3680  21.366699  14.852209  34.811259  # O_est
  416  42  4  -0.5000  23.099779  15.652825  0.418580  # O_car
  417  42  5  0.0000  23.907925  14.293441  33.953604  # H_ec
  418  42  5  0.0000  23.185374  12.439773  33.495090  # H_ec
  419  42  5  0.0000  22.335387  14.998687  33.580544  # H_ec
  420  42  5  0.0000  21.612835  13.145019  33.122030  # H_ec
  421  43  1  0.7200  35.001368  5.957981  32.742980  # C_car
  422  43  2  -0.3680  0.289647  5.727408  34.372880  # O_est
  423  43  3  0.1950  34.419740  6.303737  0.170829  # C_ec
  424  43  3  0.1950  33.037344  6.890500  34.590571  # C_ec
  425  43  2  -0.3680  33.396810  6.676811  32.877520  # O_est
  426  43  4  -0.5000  34.513354  4.862231  32.777261  # O_car
  427  43  5  0.0000  34.292330  5.373287  35.114593  # H_ec
  428  43  5  0.0000  34.547149  7.234187  0.570991  # H_ec
  429  43  5  0.0000  32.909934  5.960050  34.190409  # H_ec
  430  43  5  0.0000  33.164754  7.820950  34.990734  # H_ec
  431  44  1  0.7200  25.715373  10.729950  22.882384  # C_car
  432  44  2  -0.3680  27.069655  10.470348  21.783315  # O_est
  433  44  3  0.1950  26.599724  11.062368  20.190173  # C_ec
  434  44  3  0.1950  24.955010  11.687859  20.304627  # C_ec
  435  44  2  -0.3680  24.408451  11.482413  21.968504  # O_est
  436  44  4  -0.5000  26.147230  11.815036  23.158223  # O_car
  437  44  5  0.0000  26.908595  11.748262  20.880282  # H_ec
  438  44  5  0.0000  26.290853  10.376475  19.500065  # H_ec
  439  44  5  0.0000  25.263881  12.373752  20.994735  # H_ec
  440  44  5  0.0000  24.646138  11.001966  19.614518  # H_ec
  441  45  1  0.7200  7.726168  25.837672  0.020798  # C_car
  442  45  2  -0.3680  9.287886  26.424427  0.591918  # O_est
  443  45  3  0.1950  10.455754  25.113504  0.427637  # C_ec
  444  45  3  0.1950  9.615818  23.716554  35.098910  # C_ec
  445  45  2  -0.3680  7.928841  24.164114  34.847470  # O_est
  446  45  4  -0.5000  7.990862  26.212436  34.255900  # O_car
  447  45  5  0.0000  10.226493  25.653593  34.936192  # H_ec
  448  45  5  0.0000  10.685015  24.573415  1.263007  # H_ec
  449  45  5  0.0000  9.386557  24.256643  34.263540  # H_ec
  450  45  5  0.0000  9.845079  23.176465  0.590355  # H_ec
  451  46  1  0.7200  11.694044  28.625257  25.161572  # C_car
  452  46  2  -0.3680  12.042939  30.115143  24.285253  # O_est
  453  46  3  0.1950  11.081830  31.407471  25.003292  # C_ec
  454  46  3  0.1950  10.138937  30.716288  26.323383  # C_ec
  455  46  2  -0.3680  10.517306  28.996785  26.421206  # O_est
  456  46  4  -0.5000  12.587698  28.865367  25.925594  # O_car
  457  46  5  0.0000  11.944300  31.136576  25.477485  # H_ec
  458  46  5  0.0000  10.219359  31.678367  24.529098  # H_ec
  459  46  5  0.0000  11.001408  30.445392  26.797577  # H_ec
  460  46  5  0.0000  9.276466  30.987184  25.849190  # H_ec
  461  47  1  0.7200  31.764880  23.206943  10.289840  # C_car
  462  47  2  -0.3680  33.247070  22.257656  10.183105  # O_est
  463  47  3  0.1950  32.879667  20.613319  10.703292  # C_ec
  464  47  3  0.1950  31.170410  20.546350  11.131520  # C_ec
  465  47  2  -0.3680  30.481434  22.149298  10.875993  # O_est
  466  47  4  -0.5000  31.493283  22.909991  9.159330  # O_car
  467  47  5  0.0000  32.630294  20.877156  9.749193  # H_ec
  468  47  5  0.0000  33.129039  20.349483  11.657390  # H_ec
  469  47  5  0.0000  30.921038  20.810187  10.177422  # H_ec
  470  47  5  0.0000  31.419782  20.282514  12.085618  # H_ec
  471  48  1  0.7200  21.617200  11.067672  29.963226  # C_car
  472  48  2  -0.3680  21.743026  12.824336  29.875345  # O_est
  473  48  3  0.1950  22.736158  13.230173  28.475913  # C_ec
  474  48  3  0.1950  23.224121  11.724330  27.698898  # C_ec
  475  48  2  -0.3680  22.532568  10.387831  28.618108  # O_est
  476  48  4  -0.5000  20.634121  11.103709  29.276017  # O_car