LAMMPS (30 Mar 2026 - Development - 91d4111a9-modified)
  using 1 OpenMP thread(s) per MPI task
Lattice spacing in x,y,z = 1.6795962 1.6795962 1.6795962
Created orthogonal box = (0 0 0) to (10.077577 10.077577 10.077577)
  1 by 1 by 1 MPI processor grid
Created 864 atoms
  using lattice units in orthogonal box = (0 0 0) to (10.077577 10.077577 10.077577)
  create_atoms CPU = 0.000 seconds
Setting atom values ...
  432 settings made for charge
Setting atom values ...
  432 settings made for charge
Generated 0 of 1 mixed pair_coeff terms from geometric mixing rule
Neighbor list info ...
  update: every = 20 steps, delay = 0 steps, check = no
  max neighbors/atom: 2000, page size: 100000
  master list distance cutoff = 2.8
  ghost atom cutoff = 2.8
  binsize = 1.4, bins = 8 8 8
  1 neighbor lists, perpetual/occasional/extra = 1 0 0
  (1) pair born/coul/dsf, perpetual
      attributes: half, newton on
      pair build: half/bin/atomonly/newton
      stencil: half/bin/3d
      bin: standard
Setting up Verlet run ...
  Unit style    : lj
  Current step  : 0
  Time step     : 0.005
Per MPI rank memory allocation (min/avg/max) = 2.816 | 2.816 | 2.816 Mbytes
   Step          Temp          E_pair         E_mol          TotEng         Press     
         0                     1     3.21285670921396                    0     4.71112059810285     5.52907600982343
         1     0.999605721764665     3.21344762391878                    0     4.71112077996549     5.52901817432432
         2     0.998424203566411     3.21521819825711                    0     4.71112112825332     5.52884452126134
         3     0.996459000782397     3.21816310603411                    0     4.71112164366468     5.52855446206202
         4     0.993715517620813     3.22227425169964                    0     4.71112232757943     5.52814671110165
         5     0.990201017800463     3.22754075430153                    0     4.71112318201298     5.52761931664838
         6     0.985923923697029     3.23391791495616                    0     4.71109212702306     5.52689710936964
         7     0.980893282713973     3.24134650905944                    0     4.71098349340346     5.52589283013568
         8     0.975119275426901     3.24977947032906                    0     4.71076546806068     5.52455562270781
         9      0.96860978703885      3.2591133975964                    0     4.71034646394107      5.5227247869039
        10     0.961372491470098     3.26976167375106                    0     4.71015136149185     5.52141208666472
        11     0.953418723172986      3.2817125814233                    0     4.71018542534394     5.52066375023115
        12     0.944763309368832     3.29478368636379                    0     4.71028843633827     5.52010629382956
        13     0.935425727201594     3.30892568127107                    0     4.71044026907485     5.51970469889597
        14     0.925434760649615     3.32425657253935                    0      4.7108020559432     5.51980768529027
        15     0.914827074226756     3.34034658790947                    0     4.71099895780129     5.51948932201483
        16     0.903636116221916     3.35738305796867                    0     4.71126841959976     5.51928707051568
        17     0.891896944272691     3.37523133337349                    0      4.7115283175876      5.5190028354752
        18     0.879646590210353     3.39413698021894                    0     4.71207970131536     5.51931225860937
        19     0.866923195000719     3.41360031219324                    0       4.712480029703     5.51917247014726
        20     0.853767648331337     3.43363448209656                    0     4.71280371909299     5.51876230026225
        21     0.840221276600635     3.45424662522107                    0     4.71311982262792     5.51824624026199
        22     0.826327713692535     3.47527748921745                    0     4.71333446303109     5.51739133254751
        23     0.812133064245755     3.49679813414915                    0     4.71358777728124     5.51651550483706
        24     0.797683257946187     3.51860003662151                    0     4.71374005677353     5.51528542737143
        25     0.783025555747118      3.5407844282051                    0     4.71396334245816     5.51410925096418
        26     0.768208664267813     3.56302895027859                    0     4.71400825108263     5.51242131921896
        27     0.753282762042512     3.58557677687684                    0     4.71419313736762     5.51096093107531
        28     0.738299380092641     3.60804566805255                    0      4.7142129684344     5.50901392569565
        29     0.723308947699996     3.63061116888027                    0      4.7143188457294     5.50717902721638
        30     0.708364172847664     3.65303878461001                    0     4.71435524497031     5.50509234527719
        31     0.693517585972277       3.675335052659                    0     4.71440740803066     5.50297508364173
        32       0.6788196947432     3.69733805799897                    0     4.71438909369929      5.5006389016624
        33     0.664321989008967     3.71904834073829                    0     4.71437798746527     5.49826350730731
        34     0.650075241719548     3.74036806337651                    0     4.71435232310563     5.49582265143292
        35     0.636128543615823      3.7610891286782                    0     4.71417755426927     5.49301167429096
        36     0.622531550729328     3.78150302949921                    0     4.71421957165097     5.49071711502168
        37     0.609331785582501     3.80115974040382                    0     4.71409955109427     5.48805138371878
        38     0.596574358655265     3.82015324037478                    0     4.71397905898501      5.4854266444022
        39     0.584301752648252     3.83843620043063                    0     4.71387441663799     5.48287069234894
        40     0.572552476486826     3.85602846846054                    0     4.71386316847466     5.48059710453805
        41     0.561363191057914       3.872756838411                    0      4.7138270361245     5.47834148027274
        42     0.550768385072669     3.88848412428793                    0     4.71368050678396      5.4759148279676
        43     0.540798797260544     3.90322865022307                    0     4.71348795931308     5.47348402474301
        44     0.531480550536204     3.91707395080195                    0     4.71337206731713     5.47134585593511
        45     0.522833436788759     3.92997656812575                    0     4.71331902637002     5.46948372771826
        46     0.514874300482078     3.94182459814648                    0     4.71324216987571     5.46770153051527
        47     0.507619001745972     3.95256268966907                    0     4.71310990929889     5.46594102586209
        48      0.50107949813291     3.96242458626119                    0     4.71317390377629      5.4647874707991
        49     0.495261246969277     3.97104069766302                    0     4.71307273956317     5.46340846506389
        50     0.490164356860107     3.97873872234242                    0     4.71313427784637      5.4625866480915
        51      0.48578537840071     3.98528396270989                    0     4.71311865291789     5.46177132717599
        52      0.48211754846524     3.99068545617345                    0     4.71302476923856     5.46095129854581
        53     0.479150077465239     3.99520033091854                    0     4.71309358934302     5.46068679059644
        54     0.476870429952285      3.9986135367765                    0     4.71309128165293     5.46040792864807
        55     0.475263344986635     4.00097240084045                    0     4.71304230834646     5.46017761528036
        56     0.474307556379088     4.00249469895227                    0     4.71313258290219     5.46042870005389
        57     0.473977641510093     4.00290761762074                    0     4.71305120203603     5.46042014534807
        58     0.474247051239821     4.00246319325167                    0     4.71301042453633     5.46064651211129
        59     0.475089241226192     4.00110421411423                    0     4.71291326824306     5.46086712119655
        60     0.476473082139841     3.99891869747612                    0     4.71280111047383     5.46117357400476
        61     0.478363241866323     3.99602091034332                    0     4.71273528140345     5.46169257473784
        62     0.480723386657048       3.992341228111                    0     4.71259171888363     5.46213225264983
        63     0.483518167005839     3.98830742847807                    0     4.71274523772466     5.46335534011928
        64     0.486712319714593     3.98352660758592                    0     4.71275010049164     5.46430451564836
        65     0.490268032616498     3.97827401830307                    0     4.71282490744897     5.46546601649528
        66     0.494147905725895     3.97237056259386                    0     4.71273452551304     5.46627843395582
        67     0.498314027643268     3.96607064935695                    0     4.71267656230164     5.46718497798483
        68     0.502728143608722     3.95936709699842                    0     4.71258652049551     5.46803127114057
        69     0.507353740675831     3.95237813570813                    0     4.71252792425543     5.46894794643727
        70     0.512153032543706     3.94516906355963                    0      4.7125094578048     5.46995750765762
        71     0.517090097697454     3.93777570510862                    0     4.71251312579074     5.47100274490074
        72     0.522131282200004     3.93014143195055                    0     4.71243187733007     5.47181838861942
        73     0.527241260350283      3.9225360338692                    0     4.71248257498429     5.47290695539589
        74     0.532386920413228     3.91490098606668                    0     4.71255708383858     5.47400593218393
        75     0.537536775363572     3.90718188018706                    0     4.71255381966408     5.47487450035147
        76     0.542661381170865     3.89952404345946                    0     4.71257399476234     5.47573646465407
        77       0.5477331353305     3.89197752138625                    0     4.71262629879983     5.47660913119563
        78     0.552725693776535     3.88448017546308                    0     4.71260912290952     5.47725599552674
        79     0.557615288792757     3.87728468975969                    0     4.71273954085023     5.47817745258014
        80     0.562379378620683     3.87018328659261                    0     4.71277600143575     5.47879335261486
        81     0.566996447136245     3.86320986025716                    0     4.71272016212969     5.47911121175827
        82     0.571447287923802     3.85668792102385                    0     4.71286675692358     5.47983732372059
        83     0.575714932702493     3.85032436147011                    0     4.71289725543235     5.48021344719872
        84     0.579783336488741      3.8441882199528                    0     4.71285665639339     5.48034629900368
        85     0.583639214795771     3.83837920302234                    0     4.71282476269031      5.4804309170167
        86     0.587270223824055     3.83299926120185                    0     4.71288503057712     5.48067112665286
        87     0.590665143122806     3.82799803109787                    0     4.71297028546416     5.48091976217841
        88     0.593812623430638     3.82323504974354                    0     4.71292306019605     5.48080159226799
        89     0.596705349304917     3.81884628808474                    0     4.71286836525513     5.48059325487006
        90     0.599339367697984     3.81482185126181                    0      4.7127903830732     5.48028493075682
        91     0.601709632207671     3.81135569020082                    0     4.71287550373419     5.48029844181528
        92     0.603811284048421     3.80808965263226                    0     4.71275829522564     5.47977980366944
        93     0.605642335489286     3.80543931388402                    0     4.71285135472994      5.4796942522082
        94     0.607202238089016     3.80303307952245                    0     4.71278226610374     5.47918799469454
        95     0.608491575030911     3.80096135990321                    0     4.71264231346515     5.47846868327878
        96     0.609514489725479     3.79947573459451                    0     4.71268928430473     5.47814296167917
        97     0.610273924612455     3.79832263842819                    0     4.71267402200553     5.47762489767387
        98     0.610772882059282     3.79765308640394                    0     4.71275203990595     5.47728917296649
        99     0.611016625488246     3.79724245509212                    0      4.7127066005719     5.47663896894381
       100     0.611011611808019      3.7972055061455                    0     4.71266213980925     5.47596278613444
       101     0.610765992422003     3.79765204936274                    0     4.71274068037001     5.47556509521228
       102     0.610288806633776     3.79835364922487                    0     4.71272732999735     5.47492886904281
       103     0.609589264531088     3.79934830435309                    0     4.71267388645436     5.47417968261589
       104     0.608676816938858     3.80069209795278                    0      4.7126505927761     5.47348724147702
       105     0.607562247426061      3.8025346352715                    0     4.71282321084214     5.47325347144373
       106     0.606258926595125     3.80448077238173                    0     4.71281662941575     5.47260996664579
       107       0.6047798849837      3.8066276192961                    0     4.71274748169355     5.47181959069675
       108     0.603140466476258     3.80904655600439                    0     4.71271013685337     5.47111618544552
       109     0.601354979932104     3.81166013816874                    0     4.71264858900452     5.47037327002893
       110     0.599436326007128     3.81451323881794                    0     4.71262703976265     5.46975319932437
       111     0.597400606127822     3.81754917754234                    0     4.71261293290399     5.46917404271176
       112     0.595262590892426     3.82080056171368                    0     4.71266100605424     5.46875132996338
       113      0.59303592241795       3.824138216365                    0     4.71266252373773     5.46824066520231
       114     0.590734590041959     3.82757222571295                    0      4.7126485298904      5.4677298664601
       115     0.588371715802138     3.83109021410774                    0     4.71262630913767     5.46723649149364
       116     0.585961515811628     3.83476411403377                    0     4.71268909345293     5.46697992867385
       117     0.583518316497859      3.8385188144147                    0     4.71278323652868     5.46683230527895
       118     0.581053746697011     3.84229998105597                    0     4.71287182723569     5.46670002831344
       119     0.578581007883363      3.8459741866068                    0     4.71284121751538     5.46633254130746
       120     0.576111465727095     3.84955965792885                    0      4.7127266630026     5.46579642375474
       121     0.573654126589061     3.85318716716992                    0      4.7126724297504     5.46544463364125
       122     0.571219992786947      3.8567107392741                    0     4.71254902707816     5.46496808242676
       123     0.568820288626047      3.8602604967114                    0     4.71250339442716     5.46471720040638
       124     0.566463085288061     3.86379349073027                    0     4.71250467580595     5.46460939974159
       125     0.564155137788865     3.86710459534675                    0     4.71235786602694     5.46419191734909
       126     0.561902483375769     3.87030791009539                    0      4.7121861100143     5.46374401266247
       127     0.559710646799954     3.87362260066654                    0     4.71221685099356     5.46379785487942
       128     0.557585908762002     3.87680604806028                    0     4.71221688011168     5.46380572635613
       129     0.555534213822283     3.87983307495798                    0     4.71216992657019     5.46373533024475
       130     0.553560037821185     3.88275337697737                    0     4.71213239197682     5.46371219595968
       131     0.551665592964537     3.88548962344502                    0     4.71203026012626     5.46355826407328
       132      0.54985464997579      3.8882116164161                    0     4.71203898261246     5.46367907191149
       133     0.548129033840831     3.89075876832942                    0     4.71200070618469     5.46370756674901
       134     0.546490041103664     3.89313574397991                    0     4.71192203820293     5.46365636440038
       135     0.544939722609776     3.89542735146344                    0      4.7118908594708     5.46371964290062
       136     0.543478300498727     3.89749819924256                    0     4.71177211127451     5.46359066698335
       137      0.54210450997764     3.89955665714627                    0     4.71177226844957     5.46375485966946
       138     0.540816985009504     3.90157122937635                    0     4.71185778851385     5.46413427001287
       139      0.53961702404952     3.90335291032233                    0     4.71184161128541     5.46427926008951
       140     0.538504456929578     3.90503797708895                    0     4.71185975891226     5.46449949643748
       141     0.537477012839653     3.90667959930213                    0     4.71196199874766     5.46491651823291
       142     0.536533488853235     3.90815533498855                    0     4.71202408651692      5.4652461574182
       143     0.535672887636303     3.90947561977144                    0     4.71205496357374     5.46549964665552
       144     0.534893238950767     3.91051882494466                    0     4.71193004927541     5.46538792583719
       145     0.534192607874955     3.91155260357154                    0     4.71191409766197     5.46554912458317
       146     0.533569791860879     3.91232963191431                    0     4.71175798326142     5.46537828687484
       147     0.533024436631563     3.91305321466893                    0     4.71166447996935     5.46535288081073
       148     0.532554420635565     3.91382070815107                    0     4.71172776545748     5.46568975452309
       149     0.532156720049007     3.91439330318384                    0     4.71170450006282     5.46581250255633
       150     0.531829398870871     3.91488358331141                    0     4.71170436668912     5.46599706082083
       151     0.531571420313504     3.91515984773527                    0     4.71159411115637     5.46593040063479
       152     0.531380856583533     3.91541278727781                    0     4.71156153594376      5.4660525536997
       153     0.531255156237201     3.91564746133259                    0     4.71160787770881     5.46634987187466
       154     0.531192836598351     3.91566223940164                    0      4.7115292845134     5.46634952876659
       155     0.531191834149715     3.91557791656041                    0     4.71144345973959     5.46632973662542
       156      0.53124995084899     3.91543654089094                    0     4.71138915822198     5.46637567782131
       157     0.531363500298874     3.91536058807097                    0     4.71148333244237     5.46676554757368
       158     0.531529316014935     3.91513611144518                    0     4.71150729151617     5.46698703280963
       159     0.531746768246255      3.9149114521137                    0     4.71160843301043     5.46738177010184
       160      0.53201251046582     3.91457500300198                    0     4.71167013587004      5.4676719161555
       161     0.532324224377504     3.91413047679084                    0     4.71169263935644     5.46787621564182
       162     0.532681268553725     3.91360327701984                    0     4.71170038598141     5.46803172192041
       163     0.533080113387851     3.91315421576401                    0     4.71184889953782     5.46850326687727
       164     0.533517410083185     3.91277161134412                    0     4.71212148096528     5.46924673923782
       165     0.533991524854916     3.91221004464981                    0     4.71227026331265     5.46968746557779
       166     0.534501260451449     3.91133020699641                    0     4.71215414409641     5.46949406828974
       167     0.535045011854142     3.91042175172442                    0     4.71206037191561     5.46933144416271
       168     0.535619049692551     3.90951423436882                    0     4.71201291472415     5.46924414821333
       169     0.536220009642927     3.90861407572038                    0     4.71201315266803     5.46925380411486
       170     0.536847282290837     3.90758780871623                    0     4.71192670562073     5.46904357821557
       171     0.537498268201262      3.9066126855763                    0     4.71192693116257     5.46903171369242
       172     0.538170086203565      3.9055750072845                    0     4.71189581352353      5.4689420462945
       173     0.538862906460769     3.90442812286298                    0     4.71178695667486     5.46865672372511
       174     0.539575882114767     3.90339780493121                    0     4.71182486441913     5.46869479242244
       175     0.540304993463194      3.9023833361399                    0     4.71190279683216     5.46880900911512
       176     0.541048423009907     3.90127678664746                    0     4.71191010098348     5.46874124041461
       177     0.541805356037836     3.90004914499146                    0     4.71181654474953     5.46841150219236
       178     0.542573398647187     3.89898434968235                    0     4.71190247994715     5.46849495792356
       179     0.543349934204282     3.89783455390886                    0     4.71191613935729     5.46840428069223
       180     0.544134776628104     3.89680855427292                    0     4.71206604078343     5.46860846764671
       181     0.544927753521221     3.89561307276131                    0      4.7120586479155     5.46843859743611
       182     0.545725599984509     3.89435580687087                    0     4.71199676656988     5.46812969267954
       183     0.546526197230992     3.89310075874914                    0      4.7119412243921     5.46781713939522
       184     0.547328139595227     3.89195463120715                    0     4.71199661813541     5.46775081246632
       185     0.548128320369691     3.89080921244748                    0     4.71205008133471     5.46767496602455
       186     0.548923986619842     3.88964891202539                    0     4.71208189892283      5.4675375100761
       187      0.54971295467232     3.88851393875883                    0     4.71212900799878     5.46743061747917
       188     0.550492272525252     3.88727544722111                    0     4.71205814025808      5.4670503994571
       189     0.551261015184106     3.88620952801595                    0     4.71214400041853      5.4670499854204
       190      0.55201853895031     3.88516749588463                    0     4.71223693879108     5.46706354135271
       191     0.552761149875298     3.88421157095468                    0     4.71239364099354     5.46724024214347
       192     0.553486165664262      3.8831803466579                    0     4.71244868167224     5.46718733288036
       193     0.554193755622431     3.88206500530661                    0     4.71239349680341     5.46688076680141
       194     0.554881632538057     3.88089402566588                    0     4.71225313830537     5.46638086879763
       195     0.555546702857313     3.87986654666057                    0     4.71222211014297     5.46615014131988
       196     0.556188284789883     3.87890508607672                    0     4.71222190860045     5.46598718994205
       197     0.556804717567059     3.87803610176183                    0     4.71227650325553     5.46595084167485
       198     0.557392453595914     3.87692070919645                    0     4.71204169435839     5.46522136959762
       199     0.557950505324664     3.87622521383041                    0     4.71218230774567     5.46537799233015
       200     0.558477929852473     3.87544336925992                    0     4.71219068429931      5.4652250411369
       201     0.558972348979638     3.87480333420723                    0     4.71229141957082     5.46529625227656
       202      0.55943384715914     3.87405832074703                    0     4.71223785216776     5.46501295537507
       203     0.559861787720074     3.87347883508275                    0     4.71229953439251     5.46500136012154
       204     0.560254994451163     3.87312228941644                    0     4.71253211617226     5.46539785914649
       205     0.560613055787998     3.87277210881668                    0     4.71271840594349     5.46569719683219
       206      0.56093507435422     3.87227321977851                    0     4.71270198569464     5.46553281075001
       207     0.561221477686513     3.87171969741936                    0     4.71257757110592     5.46512210501418
       208     0.561471815354085      3.8713129328777                    0     4.71254587845162     5.46493118239817
       209      0.56168563110392     3.87101671959579                    0     4.71257001758656     5.46488014527183
       210     0.561864043152829     3.87074998371279                    0     4.71257059003378     5.46478368164746
       211     0.562006942543126       3.870674940878                    0     4.71270964819522     5.46502454592734
       212     0.562114597038992      3.8702865994233                    0     4.71248260158415     5.46441211526295
       213     0.562188563832596       3.870238442951                    0     4.71254526688768     5.46447737416831
       214     0.562229832217428     3.87029427023999                    0     4.71266292510743     5.46468094675033
       215     0.562238312199199     3.87015557477953                    0     4.71253693489743     5.46433389439583
       216     0.562214674741147     3.87019819018697                    0     4.71254413515504     5.46431242377622
       217     0.562160309437342     3.87033447963959                    0     4.71259897103617     5.46441471140845
       218     0.562076488639638     3.87031125345545                    0     4.71245015917769        5.46404825928
       219     0.561964156234967     3.87043968763449                    0     4.71241028977126     5.46394915922317
       220      0.56182434847713     3.87059691563395                    0     4.71235804885576     5.46382546364198
       221     0.561659681071276     3.87077213954339                    0     4.71228655753733     5.46366784870366
       222      0.56147442907395     3.87108845868344                    0     4.71232532029944     5.46376720013502
       223     0.561268968772848     3.87148222917919                    0     4.71241125704545      5.4639814255732
       224     0.561043740245253      3.8717959420976                    0     4.71238751819422     5.46395206150918
       225     0.560802691389429     3.87225913874679                    0     4.71248956004727     5.46422007823965
       226     0.560548338843681     3.87260889135722                    0     4.71245822542336     5.46417030199809
       227     0.560282414982065     3.87298453140165                    0     4.71243544134874     5.46414467691176
       228     0.560006374461019     3.87341346888564                    0     4.71245079728817     5.46420888516437
       229     0.559722240493571     3.87384760013787                    0     4.71245922087736     5.46425971591153
       230     0.559431289045549     3.87423690642631                    0     4.71241260511782     5.46419174063561
       231     0.559136460370608     3.87460839505637                    0      4.7123423625908      5.4640701734332
       232     0.558840348473061     3.87504498645158                    0     4.71233530022285       5.464097647015
       233     0.558544148435125     3.87543516091416                    0     4.71228168886471     5.46401610861025
       234     0.558251176549647     3.87570975250244                    0     4.71211733125651     5.46366775105577
       235        0.557962382594     3.87619853413632                    0     4.71217342333532     5.46384323318499
       236      0.55767723011186     3.87671848259456                    0     4.71226613812674     5.46411326412484
       237     0.557398485353117     3.87703550292568                    0     4.71216552525162     5.46394224638027
       238     0.557128263076913      3.8773840709297                    0     4.71210922897723      5.4638779684413
       239     0.556868277700798     3.87764749019706                    0     4.71198312154391     5.46365860250154
       240     0.556622164610564     3.87801623135016                    0     4.71198312034134     5.46373999167934
       241     0.556391186928707     3.87841785955529                    0      4.7120386830266     5.46394627522042
       242     0.556175182705272     3.87885791190322                    0     4.71215510404671     5.46429854831425
       243     0.555977197011095      3.8790768594596                    0     4.71207741678698     5.46420249510697
       244     0.555799043214601     3.87947649299155                    0     4.71221012891898     5.46460281849463
       245     0.555640713694317     3.87955783819883                    0     4.71205425472347      5.4643238633389
       246     0.555503515967218     3.87967030212655                    0     4.71196116025105     5.46419359713819
       247     0.555388879159308      3.8798659190568                    0     4.71198502099167     5.46433923891787
       248     0.555296862378269     3.88003619819028                    0     4.71201743470495      5.4645003214923
       249     0.555229184410803     3.88018458039624                    0     4.71206441745618     5.46469884572502
       250      0.55518858519031     3.88030822029413                    0     4.71212722900809     5.46493671727459
Loop time of 0.205095 on 1 procs for 250 steps with 864 atoms

Performance: 526585.498 tau/day, 1218.948 timesteps/s, 1.053 Matom-step/s
91.4% CPU use with 1 MPI tasks x 1 OpenMP threads

MPI task timing breakdown:
Section |  min time  |  avg time  |  max time  |%varavg| %total
---------------------------------------------------------------
Pair    | 0.19245    | 0.19245    | 0.19245    |   0.0 | 93.83
Neigh   | 0.0083415  | 0.0083415  | 0.0083415  |   0.0 |  4.07
Comm    | 0.0018403  | 0.0018403  | 0.0018403  |   0.0 |  0.90
Output  | 0.0011503  | 0.0011503  | 0.0011503  |   0.0 |  0.56
Modify  | 0.0009018  | 0.0009018  | 0.0009018  |   0.0 |  0.44
Other   |            | 0.0004134  |            |       |  0.20

Nlocal:            864 ave         864 max         864 min
Histogram: 1 0 0 0 0 0 0 0 0 0
Nghost:           2394 ave        2394 max        2394 min
Histogram: 1 0 0 0 0 0 0 0 0 0
Neighs:          33130 ave       33130 max       33130 min
Histogram: 1 0 0 0 0 0 0 0 0 0

Total # of neighbors = 33130
Ave neighs/atom = 38.344907
Neighbor list builds = 12
Dangerous builds not checked
Total wall time: 0:00:00
