LAMMPS (30 Mar 2026 - Development - 91d4111a9-modified)
  using 4 OpenMP thread(s) per MPI task
using multi-threaded neighbor list subroutines
Lattice spacing in x,y,z = 1.6795962 1.6795962 1.6795962
Created orthogonal box = (0 0 0) to (10.077577 10.077577 10.077577)
  1 by 1 by 1 MPI processor grid
Created 864 atoms
  using lattice units in orthogonal box = (0 0 0) to (10.077577 10.077577 10.077577)
  create_atoms CPU = 0.000 seconds
Setting atom values ...
  432 settings made for charge
Setting atom values ...
  432 settings made for charge
Generated 0 of 1 mixed pair_coeff terms from geometric mixing rule
Last active /omp style is pair_style born/coul/dsf/omp
Neighbor list info ...
  update: every = 20 steps, delay = 0 steps, check = no
  max neighbors/atom: 2000, page size: 100000
  master list distance cutoff = 2.8
  ghost atom cutoff = 2.8
  binsize = 1.4, bins = 8 8 8
  1 neighbor lists, perpetual/occasional/extra = 1 0 0
  (1) pair born/coul/dsf/omp, perpetual
      attributes: half, newton on, omp
      pair build: half/bin/atomonly/newton/omp
      stencil: half/bin/3d
      bin: standard
Setting up Verlet run ...
  Unit style    : lj
  Current step  : 0
  Time step     : 0.005
Per MPI rank memory allocation (min/avg/max) = 5.464 | 5.464 | 5.464 Mbytes
   Step          Temp          E_pair         E_mol          TotEng         Press     
         0                     1     3.21285670921405                    0     4.71112059810294     5.52907600982344
         1     0.999605721764665     3.21344762391879                    0      4.7111207799655     5.52901817432432
         2     0.998424203566411     3.21521819825711                    0     4.71112112825331     5.52884452126133
         3     0.996459000782397     3.21816310603411                    0     4.71112164366468     5.52855446206203
         4     0.993715517620813     3.22227425169964                    0     4.71112232757943     5.52814671110165
         5     0.990201017800463     3.22754075430154                    0     4.71112318201299     5.52761931664838
         6     0.985923923697029     3.23391791495614                    0     4.71109212702305     5.52689710936964
         7     0.980893282713973     3.24134650905944                    0     4.71098349340346     5.52589283013568
         8     0.975119275426901     3.24977947032906                    0     4.71076546806068     5.52455562270781
         9      0.96860978703885      3.2591133975964                    0     4.71034646394106      5.5227247869039
        10     0.961372491470098     3.26976167375106                    0     4.71015136149185     5.52141208666472
        11     0.953418723172986     3.28171258142332                    0     4.71018542534395     5.52066375023115
        12     0.944763309368832      3.2947836863638                    0     4.71028843633828     5.52010629382955
        13     0.935425727201594     3.30892568127108                    0     4.71044026907486     5.51970469889597
        14     0.925434760649615     3.32425657253934                    0     4.71080205594319     5.51980768529027
        15     0.914827074226756     3.34034658790949                    0     4.71099895780131     5.51948932201483
        16     0.903636116221916     3.35738305796867                    0     4.71126841959977     5.51928707051568
        17     0.891896944272691     3.37523133337348                    0      4.7115283175876      5.5190028354752
        18     0.879646590210353     3.39413698021898                    0     4.71207970131539     5.51931225860937
        19     0.866923195000719     3.41360031219322                    0     4.71248002970298     5.51917247014726
        20     0.853767648331337     3.43363448209657                    0       4.712803719093     5.51876230026224
        21     0.840221276600635     3.45424662522107                    0     4.71311982262792     5.51824624026199
        22     0.826327713692535     3.47527748921746                    0      4.7133344630311      5.5173913325475
        23     0.812133064245755     3.49679813414915                    0     4.71358777728125     5.51651550483705
        24     0.797683257946187     3.51860003662151                    0     4.71374005677353     5.51528542737143
        25     0.783025555747118     3.54078442820512                    0     4.71396334245818     5.51410925096418
        26     0.768208664267813     3.56302895027861                    0     4.71400825108264     5.51242131921897
        27     0.753282762042511     3.58557677687685                    0     4.71419313736762     5.51096093107531
        28     0.738299380092641     3.60804566805254                    0      4.7142129684344     5.50901392569565
        29     0.723308947699997     3.63061116888025                    0     4.71431884572937     5.50717902721638
        30     0.708364172847664     3.65303878461002                    0     4.71435524497032     5.50509234527719
        31     0.693517585972277       3.675335052659                    0     4.71440740803066     5.50297508364173
        32       0.6788196947432     3.69733805799897                    0     4.71438909369928      5.5006389016624
        33     0.664321989008967     3.71904834073832                    0      4.7143779874653     5.49826350730731
        34     0.650075241719548     3.74036806337654                    0     4.71435232310566     5.49582265143292
        35     0.636128543615823     3.76108912867819                    0     4.71417755426926     5.49301167429096
        36     0.622531550729328     3.78150302949921                    0     4.71421957165096     5.49071711502167
        37     0.609331785582501     3.80115974040384                    0     4.71409955109429     5.48805138371878
        38     0.596574358655265      3.8201532403748                    0     4.71397905898503      5.4854266444022
        39     0.584301752648252     3.83843620043062                    0     4.71387441663798     5.48287069234893
        40     0.572552476486825     3.85602846846054                    0     4.71386316847465     5.48059710453805
        41     0.561363191057914     3.87275683841102                    0     4.71382703612452     5.47834148027274
        42     0.550768385072669     3.88848412428795                    0     4.71368050678398     5.47591482796761
        43     0.540798797260544     3.90322865022307                    0     4.71348795931308     5.47348402474301
        44     0.531480550536204     3.91707395080194                    0     4.71337206731712     5.47134585593512
        45     0.522833436788759     3.92997656812574                    0     4.71331902637001     5.46948372771827
        46     0.514874300482078     3.94182459814647                    0     4.71324216987569     5.46770153051527
        47     0.507619001745972     3.95256268966909                    0      4.7131099092989     5.46594102586208
        48      0.50107949813291     3.96242458626121                    0     4.71317390377631      5.4647874707991
        49     0.495261246969277     3.97104069766301                    0     4.71307273956316     5.46340846506389
        50     0.490164356860107     3.97873872234241                    0     4.71313427784636     5.46258664809149
        51      0.48578537840071      3.9852839627099                    0     4.71311865291791     5.46177132717599
        52      0.48211754846524     3.99068545617348                    0     4.71302476923858     5.46095129854581
        53     0.479150077465239     3.99520033091856                    0     4.71309358934304     5.46068679059644
        54     0.476870429952285     3.99861353677652                    0     4.71309128165295     5.46040792864807
        55     0.475263344986635     4.00097240084046                    0     4.71304230834648     5.46017761528035
        56     0.474307556379088     4.00249469895228                    0      4.7131325829022     5.46042870005389
        57     0.473977641510093     4.00290761762074                    0     4.71305120203603     5.46042014534807
        58     0.474247051239821     4.00246319325169                    0     4.71301042453635      5.4606465121113
        59     0.475089241226193     4.00110421411422                    0     4.71291326824305     5.46086712119655
        60     0.476473082139841      3.9989186974761                    0     4.71280111047382     5.46117357400475
        61     0.478363241866323     3.99602091034332                    0     4.71273528140346     5.46169257473785
        62     0.480723386657048     3.99234122811101                    0     4.71259171888363     5.46213225264981
        63     0.483518167005839     3.98830742847808                    0     4.71274523772468     5.46335534011928
        64     0.486712319714593     3.98352660758591                    0     4.71275010049163     5.46430451564835
        65     0.490268032616498      3.9782740183031                    0       4.712824907449     5.46546601649528
        66     0.494147905725895     3.97237056259388                    0     4.71273452551306     5.46627843395583
        67     0.498314027643268     3.96607064935697                    0     4.71267656230166     5.46718497798483
        68     0.502728143608722     3.95936709699843                    0     4.71258652049553     5.46803127114057
        69     0.507353740675831     3.95237813570817                    0     4.71252792425546     5.46894794643727
        70     0.512153032543706     3.94516906355965                    0     4.71250945780482     5.46995750765762
        71     0.517090097697454     3.93777570510861                    0     4.71251312579073     5.47100274490074
        72     0.522131282200004     3.93014143195054                    0     4.71243187733006     5.47181838861942
        73     0.527241260350283     3.92253603386916                    0     4.71248257498425     5.47290695539589
        74     0.532386920413228     3.91490098606666                    0     4.71255708383856     5.47400593218393
        75     0.537536775363572     3.90718188018705                    0     4.71255381966407     5.47487450035148
        76     0.542661381170865     3.89952404345948                    0     4.71257399476235     5.47573646465407
        77       0.5477331353305     3.89197752138623                    0     4.71262629879981     5.47660913119562
        78     0.552725693776535     3.88448017546305                    0     4.71260912290949     5.47725599552673
        79     0.557615288792757     3.87728468975968                    0     4.71273954085022     5.47817745258013
        80     0.562379378620683     3.87018328659263                    0     4.71277600143577     5.47879335261486
        81     0.566996447136245     3.86320986025714                    0     4.71272016212968     5.47911121175827
        82     0.571447287923802     3.85668792102386                    0     4.71286675692359     5.47983732372059
        83     0.575714932702493      3.8503243614701                    0     4.71289725543235     5.48021344719872
        84     0.579783336488741     3.84418821995282                    0     4.71285665639341     5.48034629900368
        85     0.583639214795771     3.83837920302235                    0     4.71282476269032      5.4804309170167
        86     0.587270223824055     3.83299926120186                    0     4.71288503057714     5.48067112665285
        87     0.590665143122807     3.82799803109791                    0      4.7129702854642     5.48091976217842
        88     0.593812623430638     3.82323504974353                    0     4.71292306019603       5.480801592268
        89     0.596705349304917     3.81884628808476                    0     4.71286836525515     5.48059325487007
        90     0.599339367697984      3.8148218512618                    0     4.71279038307319     5.48028493075682
        91     0.601709632207671     3.81135569020081                    0     4.71287550373417     5.48029844181528
        92     0.603811284048421     3.80808965263227                    0     4.71275829522565     5.47977980366945
        93     0.605642335489286     3.80543931388402                    0     4.71285135472995      5.4796942522082
        94     0.607202238089016     3.80303307952246                    0     4.71278226610374     5.47918799469454
        95     0.608491575030912     3.80096135990319                    0     4.71264231346512     5.47846868327878
        96      0.60951448972548     3.79947573459451                    0     4.71268928430473     5.47814296167917
        97     0.610273924612455     3.79832263842812                    0     4.71267402200546     5.47762489767388
        98     0.610772882059282     3.79765308640393                    0     4.71275203990594     5.47728917296649
        99     0.611016625488247     3.79724245509212                    0     4.71270660057191     5.47663896894382
       100     0.611011611808019      3.7972055061455                    0     4.71266213980925     5.47596278613444
       101     0.610765992422003     3.79765204936275                    0     4.71274068037002     5.47556509521227
       102     0.610288806633776     3.79835364922487                    0     4.71272732999735     5.47492886904282
       103     0.609589264531088     3.79934830435307                    0     4.71267388645433     5.47417968261589
       104     0.608676816938858     3.80069209795276                    0     4.71265059277608     5.47348724147702
       105     0.607562247426061     3.80253463527149                    0     4.71282321084214     5.47325347144373
       106     0.606258926595125     3.80448077238171                    0     4.71281662941572     5.47260996664579
       107     0.604779884983701      3.8066276192961                    0     4.71274748169355     5.47181959069676
       108     0.603140466476258      3.8090465560044                    0     4.71271013685338     5.47111618544552
       109     0.601354979932104      3.8116601381687                    0     4.71264858900448     5.47037327002893
       110     0.599436326007128     3.81451323881791                    0     4.71262703976262     5.46975319932437
       111     0.597400606127822     3.81754917754232                    0     4.71261293290397     5.46917404271175
       112     0.595262590892426     3.82080056171367                    0     4.71266100605423     5.46875132996338
       113      0.59303592241795     3.82413821636501                    0     4.71266252373774     5.46824066520231
       114     0.590734590041959     3.82757222571292                    0     4.71264852989037     5.46772986646009
       115     0.588371715802138     3.83109021410775                    0     4.71262630913768     5.46723649149364
       116     0.585961515811628     3.83476411403378                    0     4.71268909345294     5.46697992867385
       117     0.583518316497859     3.83851881441471                    0     4.71278323652869     5.46683230527894
       118      0.58105374669701     3.84229998105596                    0     4.71287182723568     5.46670002831344
       119     0.578581007883363     3.84597418660678                    0     4.71284121751536     5.46633254130746
       120     0.576111465727095     3.84955965792881                    0     4.71272666300257     5.46579642375474
       121     0.573654126589061     3.85318716716991                    0      4.7126724297504     5.46544463364125
       122     0.571219992786947      3.8567107392741                    0     4.71254902707816     5.46496808242676
       123     0.568820288626047     3.86026049671139                    0     4.71250339442715     5.46471720040637
       124     0.566463085288061     3.86379349073025                    0     4.71250467580594      5.4646093997416
       125     0.564155137788865     3.86710459534679                    0     4.71235786602698      5.4641919173491
       126     0.561902483375769     3.87030791009539                    0     4.71218611001429     5.46374401266247
       127     0.559710646799954     3.87362260066654                    0     4.71221685099356     5.46379785487942
       128     0.557585908762002     3.87680604806027                    0     4.71221688011168     5.46380572635613
       129     0.555534213822282     3.87983307495797                    0     4.71216992657018     5.46373533024475
       130     0.553560037821186     3.88275337697734                    0     4.71213239197679     5.46371219595968
       131     0.551665592964537     3.88548962344501                    0     4.71203026012626     5.46355826407328
       132      0.54985464997579     3.88821161641609                    0     4.71203898261246     5.46367907191149
       133     0.548129033840831     3.89075876832944                    0     4.71200070618472     5.46370756674901
       134     0.546490041103664      3.8931357439799                    0     4.71192203820293     5.46365636440038
       135     0.544939722609776     3.89542735146344                    0     4.71189085947079     5.46371964290061
       136     0.543478300498726     3.89749819924257                    0     4.71177211127452     5.46359066698335
       137      0.54210450997764     3.89955665714627                    0     4.71177226844958     5.46375485966946
       138     0.540816985009504     3.90157122937637                    0     4.71185778851387     5.46413427001287
       139     0.539617024049521     3.90335291032234                    0     4.71184161128543     5.46427926008951
       140     0.538504456929578     3.90503797708898                    0     4.71185975891229     5.46449949643749
       141     0.537477012839653     3.90667959930212                    0     4.71196199874764     5.46491651823291
       142     0.536533488853235     3.90815533498852                    0     4.71202408651689      5.4652461574182
       143     0.535672887636303     3.90947561977138                    0     4.71205496357369     5.46549964665551
       144     0.534893238950767     3.91051882494471                    0     4.71193004927546     5.46538792583719
       145     0.534192607874955     3.91155260357156                    0     4.71191409766199     5.46554912458317
       146     0.533569791860879     3.91232963191427                    0     4.71175798326139     5.46537828687484
       147     0.533024436631563     3.91305321466893                    0     4.71166447996934     5.46535288081073
       148     0.532554420635565     3.91382070815105                    0     4.71172776545746     5.46568975452309
       149     0.532156720049007     3.91439330318385                    0     4.71170450006283     5.46581250255633
       150     0.531829398870871      3.9148835833114                    0     4.71170436668911     5.46599706082083
       151     0.531571420313504     3.91515984773528                    0     4.71159411115638     5.46593040063479
       152     0.531380856583533      3.9154127872778                    0     4.71156153594376      5.4660525536997
       153     0.531255156237201     3.91564746133258                    0      4.7116078777088     5.46634987187466
       154     0.531192836598351     3.91566223940166                    0     4.71152928451342      5.4663495287666
       155     0.531191834149715     3.91557791656042                    0     4.71144345973959     5.46632973662542
       156      0.53124995084899     3.91543654089096                    0       4.711389158222     5.46637567782131
       157     0.531363500298874     3.91536058807098                    0     4.71148333244238     5.46676554757368
       158     0.531529316014935     3.91513611144518                    0     4.71150729151617     5.46698703280962
       159     0.531746768246255     3.91491145211368                    0     4.71160843301041     5.46738177010183
       160      0.53201251046582     3.91457500300202                    0     4.71167013587008      5.4676719161555
       161     0.532324224377504     3.91413047679083                    0     4.71169263935643     5.46787621564182
       162     0.532681268553725     3.91360327701983                    0      4.7117003859814     5.46803172192041
       163     0.533080113387851       3.913154215764                    0     4.71184889953781     5.46850326687727
       164     0.533517410083185      3.9127716113441                    0     4.71212148096526     5.46924673923782
       165     0.533991524854917      3.9122100446498                    0     4.71227026331263     5.46968746557779
       166     0.534501260451449     3.91133020699642                    0     4.71215414409642     5.46949406828974
       167     0.535045011854143     3.91042175172442                    0     4.71206037191561     5.46933144416271
       168     0.535619049692551      3.9095142343688                    0     4.71201291472413     5.46924414821333
       169     0.536220009642926     3.90861407572033                    0     4.71201315266798     5.46925380411486
       170     0.536847282290837     3.90758780871622                    0     4.71192670562072     5.46904357821557
       171     0.537498268201262     3.90661268557632                    0     4.71192693116258     5.46903171369242
       172     0.538170086203565     3.90557500728448                    0      4.7118958135235      5.4689420462945
       173     0.538862906460769     3.90442812286294                    0     4.71178695667482     5.46865672372512
       174     0.539575882114767      3.9033978049312                    0     4.71182486441913     5.46869479242243
       175     0.540304993463194      3.9023833361399                    0     4.71190279683215     5.46880900911512
       176     0.541048423009907     3.90127678664743                    0     4.71191010098346     5.46874124041461
       177     0.541805356037836     3.90004914499147                    0     4.71181654474954     5.46841150219235
       178     0.542573398647188     3.89898434968236                    0     4.71190247994716     5.46849495792356
       179     0.543349934204282     3.89783455390887                    0      4.7119161393573     5.46840428069223
       180     0.544134776628104     3.89680855427291                    0     4.71206604078342      5.4686084676467
       181     0.544927753521222     3.89561307276133                    0     4.71205864791552     5.46843859743611
       182     0.545725599984509     3.89435580687085                    0     4.71199676656986     5.46812969267953
       183     0.546526197230992     3.89310075874913                    0     4.71194122439209     5.46781713939522
       184     0.547328139595227     3.89195463120714                    0      4.7119966181354     5.46775081246633
       185     0.548128320369691     3.89080921244747                    0      4.7120500813347     5.46767496602456
       186     0.548923986619842     3.88964891202538                    0     4.71208189892281      5.4675375100761
       187     0.549712954672321     3.88851393875883                    0     4.71212900799878     5.46743061747917
       188     0.550492272525253     3.88727544722108                    0     4.71205814025805     5.46705039945709
       189     0.551261015184106     3.88620952801598                    0     4.71214400041856      5.4670499854204
       190      0.55201853895031     3.88516749588462                    0     4.71223693879108     5.46706354135271
       191     0.552761149875298      3.8842115709547                    0     4.71239364099355     5.46724024214347
       192     0.553486165664262      3.8831803466579                    0     4.71244868167224     5.46718733288036
       193     0.554193755622432     3.88206500530661                    0     4.71239349680342     5.46688076680142
       194     0.554881632538057     3.88089402566588                    0     4.71225313830536     5.46638086879763
       195     0.555546702857313      3.8798665466606                    0     4.71222211014299     5.46615014131988
       196     0.556188284789884      3.8789050860767                    0     4.71222190860044     5.46598718994205
       197     0.556804717567059     3.87803610176185                    0     4.71227650325555     5.46595084167486
       198     0.557392453595914     3.87692070919646                    0     4.71204169435839     5.46522136959762
       199     0.557950505324664     3.87622521383038                    0     4.71218230774564     5.46537799233015
       200     0.558477929852473     3.87544336925991                    0      4.7121906842993      5.4652250411369
       201     0.558972348979638     3.87480333420723                    0     4.71229141957082     5.46529625227656
       202     0.559433847159141     3.87405832074703                    0     4.71223785216776     5.46501295537507
       203     0.559861787720074     3.87347883508273                    0     4.71229953439249     5.46500136012154
       204     0.560254994451162     3.87312228941643                    0     4.71253211617225      5.4653978591465
       205     0.560613055787998     3.87277210881667                    0     4.71271840594348      5.4656971968322
       206      0.56093507435422      3.8722732197785                    0     4.71270198569463     5.46553281075001
       207     0.561221477686514     3.87171969741935                    0     4.71257757110592     5.46512210501419
       208     0.561471815354085     3.87131293287772                    0     4.71254587845164     5.46493118239817
       209      0.56168563110392     3.87101671959577                    0     4.71257001758654     5.46488014527184
       210     0.561864043152829     3.87074998371276                    0     4.71257059003376     5.46478368164746
       211     0.562006942543126     3.87067494087803                    0     4.71270964819525     5.46502454592734
       212     0.562114597038992      3.8702865994233                    0     4.71248260158415     5.46441211526294
       213     0.562188563832596     3.87023844295099                    0     4.71254526688767     5.46447737416831
       214     0.562229832217428     3.87029427023997                    0     4.71266292510741     5.46468094675033
       215     0.562238312199199     3.87015557477954                    0     4.71253693489744     5.46433389439583
       216     0.562214674741147     3.87019819018695                    0     4.71254413515502     5.46431242377622
       217     0.562160309437342     3.87033447963959                    0     4.71259897103617     5.46441471140845
       218     0.562076488639637     3.87031125345547                    0      4.7124501591777        5.46404825928
       219     0.561964156234967     3.87043968763445                    0     4.71241028977122     5.46394915922317
       220      0.56182434847713     3.87059691563395                    0     4.71235804885576     5.46382546364197
       221     0.561659681071275     3.87077213954338                    0     4.71228655753733     5.46366784870366
       222      0.56147442907395      3.8710884586834                    0     4.71232532029941     5.46376720013502
       223     0.561268968772848     3.87148222917922                    0     4.71241125704548      5.4639814255732
       224     0.561043740245253     3.87179594209755                    0     4.71238751819418     5.46395206150918
       225     0.560802691389429     3.87225913874681                    0     4.71248956004729     5.46422007823964
       226     0.560548338843681     3.87260889135721                    0     4.71245822542335     5.46417030199809
       227     0.560282414982065     3.87298453140168                    0     4.71243544134877     5.46414467691177
       228     0.560006374461019     3.87341346888564                    0     4.71245079728818     5.46420888516438
       229     0.559722240493571     3.87384760013785                    0     4.71245922087735     5.46425971591153
       230      0.55943128904555     3.87423690642632                    0     4.71241260511783     5.46419174063561
       231     0.559136460370608     3.87460839505635                    0     4.71234236259079     5.46407017343321
       232     0.558840348473061     3.87504498645158                    0     4.71233530022285       5.464097647015
       233     0.558544148435125     3.87543516091415                    0      4.7122816888647     5.46401610861025
       234     0.558251176549647     3.87570975250244                    0     4.71211733125651     5.46366775105577
       235        0.557962382594     3.87619853413634                    0     4.71217342333533     5.46384323318499
       236      0.55767723011186     3.87671848259457                    0     4.71226613812675     5.46411326412484
       237     0.557398485353117     3.87703550292572                    0     4.71216552525166     5.46394224638027
       238     0.557128263076913     3.87738407092969                    0     4.71210922897722     5.46387796844131
       239     0.556868277700798     3.87764749019706                    0     4.71198312154392     5.46365860250154
       240     0.556622164610564     3.87801623135018                    0     4.71198312034135     5.46373999167934
       241     0.556391186928707     3.87841785955529                    0      4.7120386830266     5.46394627522042
       242     0.556175182705272     3.87885791190324                    0     4.71215510404673     5.46429854831425
       243     0.555977197011095     3.87907685945961                    0       4.712077416787     5.46420249510696
       244     0.555799043214601     3.87947649299156                    0     4.71221012891899     5.46460281849463
       245     0.555640713694317     3.87955783819886                    0      4.7120542547235      5.4643238633389
       246     0.555503515967218     3.87967030212655                    0     4.71196116025104      5.4641935971382
       247     0.555388879159307     3.87986591905685                    0     4.71198502099171     5.46433923891786
       248     0.555296862378269      3.8800361981903                    0     4.71201743470496      5.4645003214923
       249     0.555229184410803     3.88018458039626                    0     4.71206441745619     5.46469884572503
       250      0.55518858519031     3.88030822029412                    0     4.71212722900807     5.46493671727459
Loop time of 0.0708077 on 4 procs for 250 steps with 864 atoms

Performance: 1525257.846 tau/day, 3530.689 timesteps/s, 3.051 Matom-step/s
220.7% CPU use with 1 MPI tasks x 4 OpenMP threads

MPI task timing breakdown:
Section |  min time  |  avg time  |  max time  |%varavg| %total
---------------------------------------------------------------
Pair    | 0.061445   | 0.061445   | 0.061445   |   0.0 | 86.78
Neigh   | 0.0028864  | 0.0028864  | 0.0028864  |   0.0 |  4.08
Comm    | 0.0025235  | 0.0025235  | 0.0025235  |   0.0 |  3.56
Output  | 0.0010892  | 0.0010892  | 0.0010892  |   0.0 |  1.54
Modify  | 0.002747   | 0.002747   | 0.002747   |   0.0 |  3.88
Other   |            | 0.0001169  |            |       |  0.17

Nlocal:            864 ave         864 max         864 min
Histogram: 1 0 0 0 0 0 0 0 0 0
Nghost:           2394 ave        2394 max        2394 min
Histogram: 1 0 0 0 0 0 0 0 0 0
Neighs:          33130 ave       33130 max       33130 min
Histogram: 1 0 0 0 0 0 0 0 0 0

Total # of neighbors = 33130
Ave neighs/atom = 38.344907
Neighbor list builds = 12
Dangerous builds not checked
Total wall time: 0:00:00
