LAMMPS (30 Mar 2026 - Development - 91d4111a9-modified)
  using 1 OpenMP thread(s) per MPI task
Lattice spacing in x,y,z = 1.6795962 1.6795962 1.6795962
Created orthogonal box = (0 0 0) to (10.077577 10.077577 10.077577)
  1 by 1 by 1 MPI processor grid
Created 864 atoms
  using lattice units in orthogonal box = (0 0 0) to (10.077577 10.077577 10.077577)
  create_atoms CPU = 0.000 seconds
Generated 0 of 0 mixed pair_coeff terms from geometric mixing rule
Neighbor list info ...
  update: every = 20 steps, delay = 0 steps, check = no
  max neighbors/atom: 2000, page size: 100000
  master list distance cutoff = 2.8
  ghost atom cutoff = 2.8
  binsize = 1.4, bins = 8 8 8
  1 neighbor lists, perpetual/occasional/extra = 1 0 0
  (1) pair lj/cut/soft, perpetual
      attributes: half, newton on
      pair build: half/bin/atomonly/newton
      stencil: half/bin/3d
      bin: standard
Setting up Verlet run ...
  Unit style    : lj
  Current step  : 0
  Time step     : 0.005
Per MPI rank memory allocation (min/avg/max) = 2.674 | 2.674 | 2.674 Mbytes
   Step          Temp          E_pair         E_mol          TotEng         Press     
         0                     1    -1.66480973955888                    0   -0.166545850669989    -0.72649989342635
         1     0.999692538696497    -1.66434998468922                    0   -0.166546753968597   -0.723691624797002
         2     0.998760950449804    -1.66295797210265                    0   -0.166550506411364   -0.715242199463544
         3     0.997175470086544     -1.6605891510327                    0   -0.166557153316231   -0.701054670944727
         4     0.994883405922935    -1.65716465963408                    0   -0.166566778884963   -0.680954144488667
         5     0.991808617127619    -1.65257052781841                    0    -0.16657949208727   -0.654689599678203
         6     0.987851204615319    -1.64663792769782                    0   -0.166576140227302   -0.621905287115201
         7      0.98288733161202    -1.63915354652031                    0   -0.166528950719663   -0.582164850553594
         8     0.976769034627478    -1.62987656361181                    0   -0.166418791244603   -0.534989623825648
         9     0.969326796610774    -1.61850170298281                    0    -0.16619436708854   -0.479807929170776
        10     0.960370983817571    -1.60498336958859                    0   -0.166094204598023   -0.416517150400276
        11     0.949695121821911    -1.58902805458097                    0   -0.166134148101266   -0.344652272812499
        12     0.937084815464118      -1.570235702308                    0   -0.166235362472003   -0.263646420359109
        13     0.922330150598397    -1.54823937098615                    0   -0.166345412711117   -0.173090670622316
        14     0.905242584591487    -1.52287121304028                    0   -0.166578937862406  -0.0730372373379109
        15     0.885681398278171    -1.49373749973034                    0   -0.166753043629534   0.0367004411846149
        16     0.863588222493308    -1.46077647985677                    0   -0.166893431225302    0.155611387798458
        17     0.839016774958764    -1.42408767067696                    0   -0.167019134584232    0.282787293368089
        18     0.812164424899564    -1.38419223886376                    0   -0.167355609196528    0.416521818465153
        19     0.783395181292857    -1.34132999676802                    0   -0.167597285907364    0.555546781112257
        20     0.753245007889651    -1.29616556589488                    0   -0.167605771087988    0.697905463148892
        21     0.722409388558681    -1.25005097790097                    0   -0.167691078029195    0.840567406419532
        22     0.691705190504362    -1.20419673171511                    0   -0.167839823025419     0.98085368039932
        23     0.662011653411959    -1.15970969719175                    0   -0.167841542860987     1.11637557834461
        24     0.634197054254103    -1.11813484250858                    0   -0.167940297679947     1.24409841286494
        25     0.609042636879771    -1.08055533811158                    0   -0.168048748480956     1.36181430473758
        26      0.58717473559277    -1.04789002262252                    0   -0.168147319815994     1.46760664253971
        27     0.569016978856695    -1.02063932927704                    0   -0.168101737691404      1.5602626113399
        28     0.554768655313503   -0.999322956722753                    0   -0.168133113779084     1.63855076421517
        29     0.544408682984017   -0.983822059061364                    0   -0.168154188548853     1.70236045711827
        30     0.537723125035198   -0.973915667497072                    0    -0.16826452703635     1.75184414911221
        31     0.534346055657078   -0.968908900386145                    0   -0.168317501024932     1.78807840593075
        32     0.533808913573234   -0.968231985714254                    0   -0.168445366940468     1.81207813284694
        33     0.535590034391292   -0.970924742679114                    0   -0.168469534901882     1.82566396076188
        34     0.539157309292632   -0.976356329614565                    0   -0.168556402670916     1.83023432404333
        35     0.544003376033179   -0.983580417369852                    0   -0.168519803625697     1.82781985292356
        36     0.549668813314681   -0.992144340409661                    0   -0.168595406571866     1.81968744265311
        37     0.555756386332648    -1.00130041037158                    0   -0.168630685709991     1.80763027001352
        38     0.561939888001456    -1.01058414153295                    0   -0.168649899614104     1.79296804116993
        39     0.567964401831885    -1.01961861161192                    0   -0.168658058172826     1.77685228311383
        40     0.573641368164117    -1.02820215241532                    0   -0.168736005322203     1.76010187586081
        41     0.578841767020891    -1.03600648285212                    0   -0.168748765944082      1.7437003205787
        42     0.583485777020943    -1.04297850938416                    0    -0.16876283999341     1.72811343407702
        43     0.587533774650358    -1.04900354194134                    0   -0.168722903880131     1.71385343217029
        44     0.590974200567916    -1.05421184635071                    0   -0.168776542374823      1.7009612968014
        45     0.593812902486893    -1.05846125014226                    0   -0.168772821589846     1.68987690156715
        46     0.596066846851829    -1.06170686343025                    0   -0.168641431428289     1.68082237093039
        47      0.59775758640581     -1.0642557345285                    0   -0.168657128507292     1.67337922118037
        48     0.598908255867285    -1.06600035665189                    0   -0.168677744128505     1.66778432905366
        49     0.599543061788755    -1.06682623425905                    0   -0.168552514947075     1.66425404035227
        50     0.599688473365218    -1.06699842237889                    0   -0.168506838152879     1.66234382680423
        51     0.599374799826795    -1.06652951357309                    0   -0.168507895082598     1.66201884198928
        52     0.598638529612678    -1.06537494118494                    0   -0.168456449768725     1.66333267537757
        53     0.597523549838648    -1.06368607663999                    0   -0.168438119156046     1.66600698321378
        54     0.596081083873863    -1.06146819042033                    0   -0.168381427602377     1.67000896801527
        55     0.594369229485097    -1.05886485078618                    0   -0.168342897581951     1.67507517525678
        56     0.592451187637405    -1.05593817665055                    0    -0.16828995628409     1.68108127804048
        57     0.590391356757895    -1.05282388991221                    0   -0.168261839769744     1.68777977523151
        58     0.588249510956305     -1.0495546371051                    0   -0.168201637182721     1.69509213377379
        59     0.586077538103347    -1.04622750294292                    0   -0.168128691513768      1.7028223039294
        60     0.583917035509672    -1.04306035700717                    0   -0.168198548595982     1.71055566450533
        61     0.581796569847121    -1.03984104418642                    0   -0.168156252905057     1.71857790725866
        62     0.579732627198314    -1.03680144183789                    0   -0.168208981295972     1.72640562835796
        63     0.577734301951342    -1.03383600842182                    0   -0.168237566435692     1.73410872569645
        64     0.575810267965706    -1.03099138393377                    0   -0.168275652589322     1.74150637028096
        65     0.573974262886249    -1.02817446225945                    0   -0.168209551025364     1.74868002976264
        66      0.57224591674472    -1.02559797018544                    0   -0.168222577562706     1.75524050018086
        67      0.57064885217414    -1.02316613141986                    0    -0.16818356297145     1.76136319312722
        68     0.569206308300771    -1.02092397946665                    0   -0.168102722411851     1.76701723993577
        69     0.567933433082228    -1.01898943181674                    0   -0.168075277736945     1.77204825007302
        70      0.56682918061101    -1.01728098716385                    0   -0.168021294685899     1.77660218153471
        71     0.565875046998895    -1.01582235772968                    0   -0.167992209187934     1.78059608016309
        72     0.565039553275882    -1.01453260313681                    0   -0.167954244669648     1.78407605500251
        73     0.564284329635934    -1.01344303002758                    0   -0.167996195868186     1.78687509082904
        74     0.563574057009089    -1.01234364540129                    0   -0.167960987069968     1.78923929957142
        75     0.562888278223282    -1.01134481046242                    0   -0.167989629721632     1.79091243560366
        76     0.562229738636668    -1.01039813270682                    0   -0.168029618048065     1.79195397279515
        77     0.561625977057372    -1.00952153952807                    0   -0.168057619041073     1.79235642660125
        78     0.561126904261181    -1.00878643413205                    0   -0.168070256393514     1.79205414700913
        79      0.56079598293161    -1.00822320667596                    0   -0.168002836415576     1.79106558516974
        80     0.560699840155403    -1.00796491931891                    0     -0.1678885963083     1.78923846855068
        81     0.560896016243627    -1.00827378902617                    0   -0.167903542466703     1.78619327683253
        82     0.561423960491575     -1.0089921167418                    0    -0.16783087038029     1.78223653868842
        83     0.562299851086379    -1.01030994023518                    0   -0.167836378624858      1.7770629148528
        84     0.563513932628769    -1.01216016593665                    0   -0.167867589793194     1.77076530845661
        85     0.565035749974989    -1.01443936594913                    0   -0.167866705830355     1.76346623989846
        86     0.566821627464276    -1.01707724871434                    0   -0.167828872843389     1.75521038804724
        87     0.568826091504556    -1.02008810634366                    0   -0.167836514384578     1.74589723801669
        88     0.571013512613894    -1.02338032937775                    0   -0.167851403360757     1.73562547689336
        89     0.573366069940457    -1.02690360298268                    0   -0.167849925276751     1.72446807118657
        90     0.575888485622935    -1.03067423737477                    0   -0.167841315339021     1.71244529866289
        91     0.578605146251031     -1.0347210197056                    0   -0.167817823152409       1.699615896934
        92     0.581547646249487    -1.03911608271008                    0   -0.167804244666147     1.68600606066034
        93     0.584741675581384     -1.0438944663788                    0   -0.167797129526828     1.67171626813025
        94     0.588194185620185    -1.04904831543948                    0   -0.167778207470352     1.65690091597725
        95     0.591881846108359    -1.05457734956842                    0   -0.167782153055373     1.64166007773765
        96     0.595746702836854    -1.06035629767261                    0   -0.167770525887535     1.62625626669721
        97     0.599698351885029    -1.06627206193128                    0   -0.167765677075761     1.61089475067582
        98     0.603624050488994    -1.07216866626608                    0   -0.167780548953581     1.59583923741914
        99     0.607400773010862    -1.07780476478018                    0   -0.167758120494805     1.58150625754672
       100      0.61090687440266    -1.08305276657231                    0   -0.167753057180828     1.56814476527142
       101     0.614033688401921    -1.08780135110198                    0   -0.167816849208128     1.55600360691171
       102     0.616692399882983    -1.09176192978078                    0   -0.167793976483879     1.54564832131006
       103     0.618816738812755    -1.09484911242976                    0   -0.167698338826623      1.5373067575984
       104     0.620363049200959    -1.09715790731531                    0   -0.167690352696508     1.53089248205616
       105     0.621308539363303    -1.09857003414257                    0   -0.167685885756236      1.5266546135334
       106     0.621650105090834    -1.09895754352489                    0    -0.16756163954331     1.52483024279965
       107     0.621402686931744    -1.09853175870527                    0   -0.167506552416915     1.52505702969197
       108      0.62059816799423    -1.09734583567731                    0   -0.167526011060952     1.52721307091798
       109      0.61928618153653    -1.09532218860473                    0   -0.167468065920656     1.53137905242928
       110     0.617532419347202    -1.09265905319907                    0   -0.167432529072968     1.53716296726061
       111     0.615416031419783    -1.08947114131625                    0   -0.167415524796683     1.54431111552233
       112     0.613026473192667    -1.08592962400081                    0   -0.167454196283321     1.55247787067885
       113     0.610458426552015     -1.0820923136962                    0   -0.167464497525383      1.5615114120859
       114     0.607805258337129    -1.07811432261394                    0   -0.167461652570634     1.57109500944778
       115     0.605152729320002    -1.07418161896315                    0   -0.167503137360436     1.58085105981469
       116     0.602573164845338    -1.07033617799419                    0   -0.167522564692932     1.59062724115613
       117     0.600123644002557    -1.06660191097289                    0   -0.167458326295443     1.60028229431945
       118     0.597845697056763    -1.06320190047127                    0   -0.167471281443521     1.60932342880587
       119     0.595767402944339    -1.06009585177459                    0   -0.167479065765974     1.61769205061921
       120     0.593909902112209    -1.05730783727107                    0   -0.167474077682813     1.62522724169337
       121     0.592293152153207    -1.05484141688251                    0   -0.167429975375192     1.63182161302896
       122     0.590939206037753    -1.05288153117725                    0   -0.167498658242209     1.63709059847307
       123     0.589875377101137    -1.05124697941991                    0   -0.167458002964562     1.64129808186926
       124      0.58913499212479    -1.05013949084875                    0   -0.167459806467339     1.64409861701439
       125     0.588752326902646    -1.04950152702752                    0   -0.167395176129978     1.64561188028941
       126     0.588758816574113    -1.04953263571272                    0   -0.167416561574769     1.64555122400148
       127     0.589175625533239    -1.05015615417839                    0   -0.167415590228414     1.64411253680239
       128     0.590004461814155    -1.05141380108932                    0   -0.167431421669846     1.64130080847137
       129     0.591222727788734    -1.05325826517978                    0   -0.167450601843537     1.63726938537353
       130     0.592779914330756    -1.05565088899668                    0   -0.167510149296259     1.63214513252731
       131     0.594597627221963    -1.05836967172313                    0   -0.167505518437447     1.62634300843916
       132     0.596573170458729    -1.06127914306123                    0   -0.167455104682961     1.62010923493902
       133     0.598588500252677    -1.06442808152739                    0   -0.167584547294643     1.61336194166594
       134     0.600523213340354    -1.06722386055542                    0   -0.167481615568046     1.60709015694652
       135     0.602266115308793    -1.06988120428633                    0   -0.167527632217775     1.60093021727497
       136     0.603727765416587    -1.07212403986049                    0   -0.167580530217232     1.59535795097128
       137     0.604849226964458    -1.07374483473686                    0   -0.167521079753649     1.59075232681659
       138     0.605605840989141    -1.07489161290787                    0   -0.167534250453653     1.58690999170208
       139     0.606005960694257    -1.07553895972432                    0   -0.167582112364695     1.58392657606108
       140     0.606086712179846    -1.07573495421498                    0   -0.167657119820518     1.58177383481101
       141     0.605907578398606    -1.07553473874967                    0   -0.167725294030931     1.58040539259316
       142     0.605539911191956    -1.07495841065025                    0   -0.167699828430358     1.57982230343814
       143     0.605059013066806    -1.07420293481239                    0   -0.167664864887649     1.57971595624114
       144     0.604534778274918    -1.07338886057936                    0   -0.167636232712595     1.57989190869736
       145     0.604023527294125    -1.07257247807693                    0   -0.167585839092853     1.58024709791579
       146      0.60356536592847    -1.07192689420574                    0   -0.167626701851107     1.58046612888551
       147     0.603183562052397    -1.07137372741658                    0   -0.167645578022099     1.58064284799972
       148     0.602887120061212    -1.07093542290252                    0   -0.167651421838586     1.58069539588068
       149     0.602674323574885    -1.07063239582216                    0   -0.167667220049377     1.58054997843262
       150     0.602538209210891    -1.07040175420862                    0   -0.167640513672166     1.58029096709921
       151     0.602470094054773     -1.0703242802884                    0   -0.167665094230645     1.57978824275146
       152      0.60246047952102    -1.07030119770106                    0   -0.167656416752036     1.57923946778257
       153     0.602497728596907    -1.07027827536662                    0   -0.167577685472292     1.57878229006814
       154     0.602566250270044    -1.07040157131161                    0   -0.167598317868823     1.57821557584996
       155     0.602644758204497    -1.07049810327881                    0   -0.167577224232839     1.57785590300935
       156     0.602704172915513    -1.07061376990159                    0   -0.167603871939632     1.57762334912367
       157     0.602710647149035    -1.07064550662533                    0   -0.167625908553081     1.57766260608228
       158      0.60263060658917    -1.07049506480485                    0   -0.167595388613088     1.57809597985207
       159      0.60243573598721    -1.07026120141831                    0   -0.167653492812468      1.5787137781843
       160     0.602108627647855    -1.06972033670297                    0   -0.167602722709746     1.57985834462802
       161     0.601646948804998     -1.0690176065879                    0   -0.167591709333188     1.58126790408039
       162     0.601063337654615    -1.06816382147822                    0   -0.167612327735284      1.5829198563354
       163     0.600383909304485    -1.06707042096565                    0   -0.167536890184796      1.5849667427536
       164     0.599644491925097     -1.0659579833823                    0   -0.167532294959807     1.58704299035444
       165     0.598886617529058     -1.0648885833722                    0   -0.167598390789598     1.58904527933763
       166     0.598152847754072    -1.06374232597626                    0   -0.167551514150278      1.5911678344181
       167     0.597483284130263    -1.06272637532227                    0    -0.16753874649516     1.59304563473529
       168     0.596913358229481    -1.06181311902295                    0    -0.16747938959232     1.59470050325594
       169     0.596471552859567     -1.0611626193628                    0    -0.16749083096383     1.59583438745437
       170     0.596179730512848    -1.06074213654908                    0   -0.167507575034167     1.59647572793534
       171      0.59605340144913    -1.06055195311411                    0    -0.16750666587349     1.59660669434289
       172      0.59610105647789    -1.06064668536377                    0   -0.167529998314434     1.59613216491628
       173     0.596320836090701    -1.06102411835433                    0   -0.167578143447601     1.59506646457371
       174     0.596699379936961    -1.06164052258411                    0    -0.16762738910217     1.59350618993572
       175     0.597210923431455    -1.06242009225769                    0   -0.167640531630349     1.59160986491477
       176     0.597816017079746    -1.06330302692128                    0   -0.167616876331318     1.58951028550548
       177     0.598462434959213    -1.06419249455518                    0   -0.167537839399276     1.58739824934846
       178     0.599090591683519     -1.0651679221152                    0   -0.167572122422701     1.58516490238971
       179     0.599639897810872    -1.06599176389266                    0    -0.16757295866561     1.58323422449924
       180     0.600053640800665    -1.06666866255376                    0   -0.167629961145823     1.58162681960164
       181     0.600284322858917    -1.06700355731486                    0   -0.167619233309227     1.58070543313783
       182     0.600297743685904    -1.06703539299109                    0   -0.167630961045018     1.58044504408746
       183     0.600074714557089    -1.06671155055188                    0   -0.167641275095686     1.58097401495192
       184       0.5996113538633    -1.06597937482775                    0   -0.167603335966587     1.58241210662859
       185     0.598919079762471    -1.06496395510982                    0   -0.167625125535142     1.58456652892462
       186     0.598023179881532    -1.06354776863709                    0   -0.167551233502087     1.58763811267053
       187     0.596962351519398    -1.06192102502693                    0   -0.167513890719226     1.59130436481837
       188     0.595785306876125    -1.06021908390991                    0   -0.167575473086831     1.59533840878205
       189     0.594548329938445    -1.05841763287603                    0   -0.167627339930065     1.59979451906047
       190     0.593309901031922    -1.05650586628565                    0   -0.167571066649282     1.60471721073245
       191     0.592121657498962    -1.05476004653266                    0    -0.16760554927293     1.60967064213486
       192     0.591023023658266    -1.05309354766264                    0   -0.167585093813536     1.61481753208086
       193     0.590036440138555    -1.05165842416267                    0   -0.167628132774524     1.61989599580288
       194     0.589163477981026    -1.05040959067167                    0   -0.167687226960514     1.62494582108824
       195      0.58838492318809    -1.04939330870646                    0   -0.167837425527084     1.62982795149069
       196     0.587664441471183    -1.04822452243692                    0   -0.167748110996591     1.63511489402104
       197     0.586953933715104    -1.04703874683116                    0   -0.167626863504542     1.64050433653079
       198     0.586201044512562    -1.04584093236359                    0   -0.167557075741467     1.64592415050063
       199     0.585357788389159    -1.04452975234463                    0   -0.167509315921289     1.65149688418667
       200     0.584387179490585     -1.0431323269663                    0   -0.167566118805923     1.65714413264941
       201     0.583266260337236    -1.04146315959149                    0   -0.167576384120947     1.66315350607835
       202     0.581989849644499    -1.03960230054641                    0   -0.167627925124184     1.66937036750742
       203     0.580571993960486    -1.03743773137141                    0     -0.1675876779202     1.67596308668805
       204      0.57904536254648    -1.03514215950368                    0   -0.167579402771716     1.68261960447016
       205     0.577461232964759    -1.03279633788861                    0   -0.167607025304263     1.68918213590807
       206     0.575888141167061    -1.03038076637785                    0   -0.167548360427898     1.69566414982045
       207     0.574404951020665    -1.02818475085315                    0   -0.167574555139899     1.70156221122975
       208     0.573094912645856    -1.02608292264975                    0   -0.167435510126529     1.70707162491291
       209     0.572040831335322    -1.02453529755194                    0   -0.167467176992252     1.71140518535827
       210     0.571317570625519    -1.02350817026663                    0   -0.167523685110691     1.71460229233435
       211       0.5709859772203    -1.02293286470607                    0   -0.167445193974956     1.71675423782484
       212     0.571088034492044    -1.02315518962559                    0   -0.167514610169632     1.71724755982597
       213     0.571644144504036    -1.02405961862991                    0   -0.167585839624733     1.71623872832021
       214     0.572652646768793    -1.02553993331465                    0   -0.167555151784325     1.71387066673729
       215     0.574092777158929    -1.02774348045729                    0   -0.167601003568134     1.70987358375925
       216      0.57592633045848    -1.03050005805387                    0   -0.167610434467642     1.70453265493001
       217     0.578098992005442    -1.03376603325969                    0   -0.167621189334873      1.6979439633713
       218     0.580543871185448    -1.03740295397154                    0   -0.167595035858619     1.69038456191517
       219     0.583184291446442    -1.04135694213748                    0    -0.16759297769602     1.68200359871982
       220     0.585934641655005    -1.04547203112039                    0   -0.167587316279647      1.6731255575709
       221     0.588703173423079    -1.04960346167715                    0   -0.167570755663058      1.6640530854684
       222     0.591397658176665    -1.05362373378174                    0   -0.167553978562184     1.65505630598374
       223      0.59392961549337    -1.05741890820498                    0     -0.1675556127696     1.64638108254723
       224     0.596219623258813    -1.06088777907869                    0   -0.167593447703068     1.63825528049157
       225     0.598202002157608    -1.06388487779682                    0   -0.167620419703038     1.63098823308842
       226     0.599827748175038    -1.06621385256406                    0   -0.167513597919858     1.62498207880351
       227     0.601066680305515    -1.06810316723557                    0   -0.167546665319494      1.6199290212827
       228     0.601905711820995    -1.06926457252111                    0    -0.16745097998375     1.61638496066468
       229     0.602347252775872    -1.06987654247028                    0   -0.167401405064761     1.61410765976433
       230     0.602409026971023    -1.06996504576928                    0   -0.167397354317901     1.61309026282055
       231      0.60212027693618    -1.06952818969982                    0   -0.167393121998568     1.61334384281725
       232     0.601520059986896    -1.06863822593358                    0   -0.167402441612934     1.61472309533336
       233     0.600658522090184    -1.06736535620403                    0   -0.167420383002937     1.61705798611949
       234     0.599595752300132    -1.06576200974154                    0   -0.167409346139089     1.62018583335206
       235     0.598402235067432     -1.0639235344345                    0   -0.167359074602562     1.62386059368673
       236     0.597158793118704     -1.0620755081787                    0   -0.167374052516479     1.62761996084083
       237     0.595954842283114    -1.06029072203975                    0   -0.167393102438484     1.63127402229287
       238     0.594882226580742    -1.05865625483035                    0   -0.167365696602609      1.6346314625964
       239     0.594027150518015    -1.05740089798924                    0   -0.167391469348533      1.6372853326703
       240     0.593463314827663     -1.0566457751854                    0   -0.167481121198811     1.63902692633079
       241     0.593242287594947    -1.05626964328452                    0    -0.16743614641917     1.64005869091821
       242     0.593386807143865    -1.05648164240035                    0   -0.167431617113627     1.64001852891137
       243      0.59388950485637    -1.05726147021767                    0   -0.167458271101268     1.63891358399331
       244     0.594715653995377     -1.0585047827514                    0    -0.16746379421319     1.63687682374402
       245     0.595809232279555    -1.06023429946084                    0   -0.167554842069774     1.63382087224615
       246     0.597101994357586    -1.06222430404303                    0   -0.167607947913521     1.63008360816635
       247     0.598526124812639    -1.06431578749092                    0   -0.167565708127544     1.62591588528487
       248     0.600022911464832    -1.06660448053284                    0    -0.16761181977911     1.62117577156479
       249     0.601545692251172    -1.06890727469841                    0   -0.167633086481815     1.61622473866226
       250     0.603061326460387    -1.07117933477781                    0   -0.167634326556774     1.61121943697833
Loop time of 0.0790388 on 1 procs for 250 steps with 864 atoms

Performance: 1366417.506 tau/day, 3163.003 timesteps/s, 2.733 Matom-step/s
59.3% CPU use with 1 MPI tasks x 1 OpenMP threads

MPI task timing breakdown:
Section |  min time  |  avg time  |  max time  |%varavg| %total
---------------------------------------------------------------
Pair    | 0.06739    | 0.06739    | 0.06739    |   0.0 | 85.26
Neigh   | 0.0082484  | 0.0082484  | 0.0082484  |   0.0 | 10.44
Comm    | 0.0016334  | 0.0016334  | 0.0016334  |   0.0 |  2.07
Output  | 0.0007257  | 0.0007257  | 0.0007257  |   0.0 |  0.92
Modify  | 0.0007655  | 0.0007655  | 0.0007655  |   0.0 |  0.97
Other   |            | 0.0002757  |            |       |  0.35

Nlocal:            864 ave         864 max         864 min
Histogram: 1 0 0 0 0 0 0 0 0 0
Nghost:           2374 ave        2374 max        2374 min
Histogram: 1 0 0 0 0 0 0 0 0 0
Neighs:          33004 ave       33004 max       33004 min
Histogram: 1 0 0 0 0 0 0 0 0 0

Total # of neighbors = 33004
Ave neighs/atom = 38.199074
Neighbor list builds = 12
Dangerous builds not checked
Total wall time: 0:00:00
