LAMMPS (30 Mar 2026 - Development - 91d4111a9-modified)
  using 4 OpenMP thread(s) per MPI task
using multi-threaded neighbor list subroutines
Lattice spacing in x,y,z = 1.6795962 1.6795962 1.6795962
Created orthogonal box = (0 0 0) to (10.077577 10.077577 10.077577)
  1 by 1 by 1 MPI processor grid
Created 864 atoms
  using lattice units in orthogonal box = (0 0 0) to (10.077577 10.077577 10.077577)
  create_atoms CPU = 0.000 seconds
Generated 0 of 0 mixed pair_coeff terms from geometric mixing rule
Last active /omp style is pair_style nm/cut/split/omp
Neighbor list info ...
  update: every = 20 steps, delay = 0 steps, check = no
  max neighbors/atom: 2000, page size: 100000
  master list distance cutoff = 2.8
  ghost atom cutoff = 2.8
  binsize = 1.4, bins = 8 8 8
  1 neighbor lists, perpetual/occasional/extra = 1 0 0
  (1) pair nm/cut/split/omp, perpetual
      attributes: half, newton on, omp
      pair build: half/bin/atomonly/newton/omp
      stencil: half/bin/3d
      bin: standard
Setting up Verlet run ...
  Unit style    : lj
  Current step  : 0
  Time step     : 0.005
Per MPI rank memory allocation (min/avg/max) = 5.322 | 5.322 | 5.322 Mbytes
   Step          Temp          E_pair         E_mol          TotEng         Press     
         0   3             -6.7733681      0             -2.2785764     -3.7056485    
       100   1.6794191     -4.8031173      0             -2.2869043      5.5913424    
       200   1.7032893     -4.8387453      0             -2.2867685      5.5930439    
       300   1.6931391     -4.8245363      0             -2.2877671      5.612347     
       400   1.6560938     -4.7709662      0             -2.2897007      5.8747487    
       500   1.6035649     -4.6894611      0             -2.2868977      6.1335473    
Loop time of 0.064031 on 4 procs for 500 steps with 864 atoms

Performance: 3373366.026 tau/day, 7808.718 timesteps/s, 6.747 Matom-step/s
268.4% CPU use with 1 MPI tasks x 4 OpenMP threads

MPI task timing breakdown:
Section |  min time  |  avg time  |  max time  |%varavg| %total
---------------------------------------------------------------
Pair    | 0.047517   | 0.047517   | 0.047517   |   0.0 | 74.21
Neigh   | 0.0062714  | 0.0062714  | 0.0062714  |   0.0 |  9.79
Comm    | 0.0047504  | 0.0047504  | 0.0047504  |   0.0 |  7.42
Output  | 6.84e-05   | 6.84e-05   | 6.84e-05   |   0.0 |  0.11
Modify  | 0.0052289  | 0.0052289  | 0.0052289  |   0.0 |  8.17
Other   |            | 0.0001954  |            |       |  0.31

Nlocal:            864 ave         864 max         864 min
Histogram: 1 0 0 0 0 0 0 0 0 0
Nghost:           2410 ave        2410 max        2410 min
Histogram: 1 0 0 0 0 0 0 0 0 0
Neighs:          32768 ave       32768 max       32768 min
Histogram: 1 0 0 0 0 0 0 0 0 0

Total # of neighbors = 32768
Ave neighs/atom = 37.925926
Neighbor list builds = 25
Dangerous builds not checked
Total wall time: 0:00:00
